<?xml version="1.0"?>
<VTKFile type="UnstructuredGrid" version="0.1" byte_order="LittleEndian" header_type="UInt32" compressor="vtkZLibDataCompressor">
  <UnstructuredGrid>
    <Piece NumberOfPoints="2341" NumberOfCells="1239">
      <PointData Scalars="Contrainte:von Mises">
        <DataArray type="Float32" Name="Contrainte:von Mises" format="ascii" RangeMin="1.4419329166" RangeMax="49.570270538">
          37.969364166 38.254814148 40.761299133 5.1861567497 32.618579865 25.107704163
          24.452835083 35.414539337 4.7001786232 41.081485748 35.158538818 24.763492584
          5.8393530846 43.449455261 39.013751984 35.541748047 42.623344421 24.560869217
          36.214057922 6.0126404762 35.006942749 37.608104706 38.071117401 34.866661072
          31.712890625 31.918037415 37.958526611 34.289291382 34.802658081 38.110801697
          32.281482697 31.598384857 27.87654686 39.81413269 7.7664923668 23.338922501
          19.008995056 9.4252357483 27.527505875 24.653047562 27.15514946 7.7977342606
          21.996469498 23.062955856 8.5046710968 43.263652802 38.588443756 41.742275238
          40.745544434 41.511962891 39.993724823 41.491218567 37.975280762 26.727212906
          25.025262833 22.476068497 21.988889694 22.040025711 22.265176773 22.537376404
          24.785863876 5.0473213196 15.148556709 34.125701904 36.920089722 32.043964386
          15.741394997 4.6971840858 7.7108564377 22.103599548 40.957489014 37.234916687
          34.748901367 33.769012451 35.361053467 37.721355438 42.24156189 21.700307846
          7.7845835686 23.1054039 18.907468796 15.344898224 13.403180122 14.955075264
          18.801828384 20.826263428 34.911827087 23.713226318 18.769155502 15.053770065
          13.529911041 14.542410851 18.004558563 23.155858994 29.78603363 41.246669769
          37.507053375 34.44682312 33.659351349 34.821868896 36.407138824 40.632595062
          42.475658417 25.523384094 22.524219513 21.748031616 22.068510056 21.895263672
          22.766143799 25.331741333 27.351272583 38.904125214 39.975681305 39.990039825
          42.149936676 39.440944672 41.182846069 39.098739624 24.967578888 4.8694591522
          16.232601166 31.110931396 38.543346405 32.970935822 13.681846619 5.3408064842
          21.761116028 8.69901371 7.3139357567 19.994680405 43.211387634 42.100841522
          39.212341309 40.402229309 40.272357941 39.961273193 41.857311249 42.431739807
          14.921442032 11.258207321 12.432971001 15.420271873 40.959217072 38.775794983
          43.471656799 38.482967377 39.061016083 38.19834137 16.231851578 12.821710587
          13.035452843 16.286964417 41.642917633 43.784484863 40.508724213 40.324542999
          40.130241394 39.364040375 38.402187347 40.125411987 11.967625618 7.3448381424
          9.2074995041 11.806845665 12.503453255 7.8508257866 7.9162740707 10.507478714
          39.367473602 38.897510529 34.855541229 30.067562103 28.185678482 19.851751328
          19.551607132 25.470945358 21.751024246 24.386213303 25.147720337 16.940044403
          16.369720459 24.575315475 28.11309433 25.410964966 32.888652802 31.677268982
          31.333934784 30.956159592 29.932172775 29.700878143 26.172771454 25.364423752
          23.383371353 23.396778107 25.980325699 6.895087719 24.218662262 12.349390984
          20.56142807 27.064928055 21.377601624 8.6293497086 14.86342144 20.445800781
          26.616374969 29.024084091 28.794094086 28.386928558 24.416540146 4.8532509804
          21.406850815 27.38876915 31.251350403 25.419847488 30.544374466 23.237852097
          23.84664917 7.3905873299 13.829395294 18.037578583 27.687162399 22.653942108
          12.708745003 30.848619461 21.440208435 16.799930573 17.078422546 20.947259903
          29.74228096 36.431003571 15.47399044 16.445987701 8.7554531097 11.93936348
          7.8677873611 8.8594636917 10.44357872 34.33095932 36.614910126 25.267780304
          16.940771103 16.355758667 20.244586945 26.92395401 27.772203445 27.592502594
          27.458509445 23.646680832 22.102531433 26.348566055 28.691574097 24.955318451
          22.104089737 22.09649086 21.632640839 21.159778595 22.5542202 24.692865372
          21.743551254 6.0326461792 10.266776085 21.085208893 21.888368607 21.242805481
          11.93106842 8.5761890411 25.350294113 23.708086014 27.164415359 26.903190613
          22.656747818 29.030668259 6.6365938187 22.686225891 30.236831665 26.760274887
          25.756944656 34.237442017 23.519079208 21.66737175 5.797044754 12.45253849
          25.229892731 26.951181412 12.605039597 20.493741989 24.624437332 27.834856033
          29.181747437 21.884315491 18.733469009 24.760095596 22.251831055 24.397006989
          17.047101974 24.175685883 24.742399216 27.258361816 19.757411957 37.376598358
          32.5184021 31.601005554 30.599153519 31.817790985 27.364969254 37.517597198
          36.122612 33.639957428 28.821996689 24.675308228 14.708098412 18.516216278
          42.034210205 40.98651123 43.441612244 42.025337219 40.713382721 42.102039337
          33.312286377 23.527029037 17.726278305 22.937158585 27.564752579 38.047470093
          31.014053345 30.369810104 22.597990036 34.5741539 36.184871674 32.372104645
          30.118099213 21.790245056 11.230656624 18.266180038 33.92024231 18.661521912
          15.917040825 16.943834305 21.567054749 30.401853561 26.866006851 28.15117836
          42.258838654 40.41960144 42.33637619 42.783325195 41.9610672 42.247089386
          28.604755402 24.433744431 13.882656097 11.34758091 7.3681688309 13.603693962
          24.371126175 23.689760208 7.8976631165 5.9715976715 8.0893087387 23.894195557
          5.7031002045 27.301902771 34.462837219 28.940153122 33.222915649 32.554798126
          35.20980072 29.815696716 31.243833542 23.480434418 34.63551712 28.715911865
          33.726215363 18.429601669 16.371046066 21.449808121 36.872409821 32.06603241
          36.907054901 37.332782745 32.761039734 31.971569061 39.466461182 37.637924194
          3.1175980568 14.850581169 34.344741821 29.018728256 14.338376999 3.0111479759
          24.807552338 33.129207611 24.504558563 25.01385498 32.986602783 24.870456696
          2.8753097057 13.262827873 30.073625565 33.987304688 15.15380764 2.7607796192
          38.097438812 38.595561981 36.50233078 40.567317963 41.954471588 42.619556427
          40.998920441 40.716510773 40.471656799 35.498336792 33.372180939 24.782365799
          25.397209167 23.136978149 22.073112488 22.188114166 22.115627289 21.791063309
          23.166973114 25.163946152 5.128844738 7.6216282845 24.674800873 36.105823517
          35.420482635 24.355726242 5.6759819984 4.8168406487 3.8971471786 13.968630791
          29.083837509 41.017238617 39.639572144 36.802726746 35.008808136 34.103614807
          37.447471619 40.440013885 42.490345001 34.422958374 14.767093658 3.1645188332
          30.559059143 21.098804474 17.233356476 14.321476936 14.265390396 16.965072632
          21.016454697 27.282342911 35.572856903 40.657203674 29.483190536 21.147005081
          17.304021835 14.443714142 14.406498909 15.742337227 21.545740128 29.850254059
          30.62836647 31.686830521 42.433689117 39.578998566 36.279560089 34.32106781
          34.420284271 36.23575592 39.649341583 39.784111023 37.908348083 37.670139313
          25.233026505 23.627305984 21.587713242 21.853858948 22.155658722 21.960781097
          24.120830536 25.069080353 32.628795624 24.75476265 37.264961243 39.598323822
          40.852523804 41.467071533 40.971363068 41.409843445 39.917385101 37.825397491
          24.897737503 24.885915756 4.5513691902 9.2344760895 23.883522034 35.564048767
          36.327308655 23.12701416 7.6201272011 5.5789070129 34.84941864 15.586833
          3.22742939 4.1376829147 13.122076988 29.881202698 40.239059448 43.551216125
          41.474758148 40.035438538 41.532444 41.582111359 40.46295929 41.217308044
          42.20085907 42.770275116 40.636699677 24.287107468 13.182830811 11.842788696
          14.232008934 23.797458649 32.768306732 41.594558716 39.916282654 36.748935699
          42.257518768 41.155132294 40.442737579 36.449989319 36.385597229 38.554176331
          39.722743988 37.063961029 24.682762146 14.740498543 12.579133987 15.276637077
          24.260612488 41.023262024 43.077110291 41.188503265 40.641654968 41.378772736
          41.069835663 40.889453888 40.358917236 38.160831451 39.692623138 40.896968842
          20.339977264 9.5971870422 9.2955789566 11.066325188 20.027935028 33.855911255
          20.3627491 10.310822487 7.8142256737 9.2749519348 19.136926651 40.159854889
          38.705028534 37.358242035 32.315788269 34.450618744 34.566726685 36.278614044
          34.50749588 12.508452415 7.9310617447 19.726955414 32.602928162 22.606466293
          19.968914032 27.771724701 17.497785568 7.4806079865 12.78344059 25.39994812
          24.582300186 25.548158646 23.929258347 24.921743393 24.142835617 23.471073151
          25.556476593 11.679693222 6.235918045 21.694904327 15.176750183 20.569135666
          24.252759933 32.944255829 15.981104851 22.989171982 6.004696846 11.223877907
          35.490226746 36.890686035 30.059368134 31.227794647 19.826005936 24.950918198
          28.894018173 24.495786667 22.790376663 23.020359039 24.879308701 23.582220078
          27.444318771 21.116855621 16.491594315 25.585613251 28.383766174 27.900939941
          29.763002396 20.782613754 27.142597198 25.521495819 29.915363312 29.102712631
          26.237802505 29.012125015 28.001693726 24.007471085 23.870328903 27.958705902
          28.213502884 28.866224289 31.03086853 27.952939987 30.975418091 32.826370239
          28.822113037 32.328010559 31.701059341 32.623920441 31.987327576 25.306957245
          35.523117065 28.941303253 35.183185577 36.57542038 38.763126373 35.987812042
          34.977859497 35.171104431 34.990882874 34.015113831 32.817546844 33.385437012
          33.402004242 38.392440796 37.480068207 28.33385849 25.156970978 26.22584343
          24.978305817 23.396537781 22.405855179 21.727426529 21.179969788 21.135427475
          21.290319443 22.471593857 23.375083923 25.009386063 25.944484711 28.01225853
          25.166748047 24.148241043 23.047826767 24.662694931 35.388324738 27.538402557
          21.902721405 21.068740845 29.976852417 7.9063501358 12.499165535 1.6534491777
          2.127538681 3.9529550076 16.432374954 11.94976902 30.05140686 29.450260162
          28.326818466 19.214363098 24.984241486 2.407330513 5.6530604362 1.9386423826
          8.1523694992 21.556367874 13.481728554 29.218412399 33.216026306 37.406257629
          36.678874969 39.324920654 41.671142578 40.247589111 40.68572998 40.214912415
          38.334941864 39.195472717 33.363098145 36.027336121 14.429611206 5.9135870934
          24.349220276 16.618902206 23.763286591 24.361268997 12.164596558 17.51074028
          9.7051239014 13.256493568 21.507219315 29.534881592 30.155696869 28.874044418
          34.981071472 27.794612885 23.251802444 15.573964119 17.98141861 15.380264282
          19.193008423 19.976005554 20.077514648 20.847444534 19.5454216 19.601610184
          15.012862206 18.717594147 6.1348338127 2.2134637833 22.315158844 13.510255814
          33.4088974 33.021331787 37.053516388 36.956279755 36.488983154 38.211158752
          37.45872879 35.768817902 35.488414764 38.009117126 37.873916626 38.30941391
          36.135345459 35.647159576 21.960765839 7.4188299179 14.266513824 2.727285862
          2.2180538177 4.9440374374 11.762685776 21.1301651 30.224075317 30.160402298
          29.046384811 25.261878967 16.913087845 4.1988568306 2.9484872818 12.20423317
          23.471618652 31.135402679 29.471691132 32.081977844 24.969207764 27.70867157
          27.528022766 15.098684311 6.5778408051 16.335975647 22.213287354 22.51499176
          25.918439865 13.19685173 9.5590190887 8.6206827164 14.930462837 17.321149826
          21.366922379 19.32078743 18.856031418 18.399831772 19.594478607 21.342912674
          17.74987793 18.450471878 18.233699799 40.890083313 31.207965851 33.515617371
          26.164300919 22.803312302 15.957465172 18.305669785 12.200865746 13.147005081
          13.065814972 12.557734489 17.44849968 15.494051933 24.083820343 21.654973984
          36.050682068 27.227909088 34.957584381 40.023189545 37.813869476 34.265628815
          29.690246582 27.459699631 25.644828796 24.578241348 25.114236832 25.784950256
          26.434890747 29.032756805 33.406147003 37.239002228 25.638431549 18.819202423
          16.755498886 18.807468414 25.291572571 32.350170135 39.097801208 23.233459473
          20.399669647 22.930278778 19.555622101 24.64509964 16.026472092 11.948628426
          13.67784977 10.23677063 10.724870682 9.9456129074 9.7298870087 10.236579895
          10.71942234 18.205791473 14.992180824 23.798244476 21.287706375 14.194187164
          17.289205551 12.217545509 13.77115345 10.228280067 11.168340683 10.087530136
          9.6982040405 12.308639526 10.884542465 15.342773438 14.006181717 13.505269051
          10.341925621 8.6727705002 8.7975358963 11.295763016 9.3137464523 12.544728279
          16.940229416 31.972600937 40.819637299 36.799060822 41.157604218 40.866653442
          36.865085602 30.38693428 27.704500198 25.056734085 24.570022583 24.732572556
          24.907800674 27.299949646 27.839796066 35.655223846 39.723419189 31.910881042
          37.170711517 20.126607895 23.312772751 17.435758591 12.854859352 13.384515762
          13.500944138 12.374775887 18.101194382 15.313212395 26.946369171 23.493021011
          30.816940308 19.807844162 16.695373535 17.713220596 22.585212708 30.671218872
          30.06637764 27.862586975 21.405879974 34.831268311 25.453409195 27.48156929
          25.445545197 25.637483597 24.388721466 24.076335907 22.978830338 22.205768585
          21.891944885 21.200227737 21.461051941 22.48059845 23.283536911 24.987369537
          25.6914711 34.358913422 27.592664719 35.492046356 36.153053284 34.68825531
          33.880607605 32.216888428 32.10735321 33.047016144 32.432842255 33.753681183
          36.094852448 36.488208771 27.344747543 24.88180542 22.45375824 24.748701096
          27.039653778 24.663166046 28.360197067 34.660186768 35.811210632 25.193225861
          25.537027359 25.042194366 24.932249069 23.362957001 21.567657471 22.659294128
          21.699214935 21.538713455 21.67265892 22.027154922 21.942619324 21.749851227
          23.355136871 22.415313721 25.314535141 24.62033844 25.362356186 25.334386826
          23.417226791 25.11268425 21.393619537 22.14614296 21.227340698 20.977638245
          21.60880661 21.427692413 21.724355698 21.704658508 23.447498322 22.594762802
          24.972885132 23.336820602 21.558572769 22.13498497 21.447465897 21.846704483
          23.095542908 34.09859848 22.139209747 13.553965569 7.2117962837 1.8268595934
          2.7789149284 2.6825652122 9.4152536392 19.263362885 25.427177429 29.521396637
          29.367088318 24.932691574 20.22061348 10.59576416 3.2490346432 3.3012113571
          2.8504314423 24.008281708 33.386127472 8.6272153854 14.716769218 35.918785095
          36.260662079 35.310256958 35.362052917 36.289611816 35.574008942 35.959468842
          35.548030853 34.85848999 35.587844849 36.58769989 37.241260529 34.131244659
          12.587081909 5.5322122574 15.01922226 22.746700287 27.003328323 22.819740295
          17.259204865 6.7499790192 15.756596565 23.853120804 24.807792664 28.750806808
          22.9270401 26.240247726 26.132720947 15.743570328 16.8841362 17.869630814
          18.44377327 18.582626343 18.897779465 19.661270142 17.688179016 17.182750702
          17.312055588 17.858636856 1.7054853439 7.1810750961 13.346768379 22.155729294
          31.346206665 33.044746399 36.923854828 39.108386993 40.548774719 39.232559204
          41.29278183 43.264625549 43.551086426 42.001529694 35.193470001 33.096282959
          30.808403015 6.1385803223 1.4419329166 20.029111862 12.750884056 2.0621685982
          11.148918152 3.4715127945 26.23825264 19.931343079 29.947912216 24.180936813
          29.29491806 12.037825584 20.929937363 4.0636482239 2.426281929 13.385644913
          26.660955429 29.760940552 26.612110138 39.120628357 28.246171951 29.952281952
          34.822532654 22.515523911 12.03131485 6.8123764992 16.888271332 30.26199913
          26.525360107 17.838905334 23.658454895 5.1944055557 16.650644302 19.265823364
          18.265245438 19.790792465 19.027393341 20.280181885 21.311656952 19.03524971
          14.832604408 13.333359718 20.048221588 21.225927353 32.028621674 17.646678925
          8.5120534897 14.162543297 11.839093208 7.3537931442 18.102579117 28.568475723
          19.851272583 24.280954361 26.47803688 24.495336533 25.305343628 25.000108719
          24.283399582 25.246013641 23.557806015 7.1062755585 10.570867538 15.452549934
          21.36671257 22.276613235 33.090263367 23.281843185 18.80112648 12.735365868
          7.5046281815 37.590873718 33.435470581 31.745296478 32.944236755 32.488079071
          35.110275269 33.493843079 30.768117905 25.916501999 31.92052269 23.836935043
          19.890001297 23.779157639 23.534656525 23.358390808 25.141656876 27.517253876
          22.86690712 19.055086136 20.083049774 26.21903038 28.124649048 24.97605896
          31.689443588 37.835460663 28.054853439 30.115219116 30.192121506 27.647125244
          25.403013229 27.092628479 28.509147644 26.011062622 25.506822586 24.925136566
          28.302125931 26.986728668 28.523838043 28.410556793 30.113946915 30.955972672
          32.618377686 28.699140549 31.35433197 31.738006592 33.277057648 32.762645721
          32.557888031 37.369064331 38.32983017 42.613204956 42.883125305 45.735061646
          41.817695618 46.37771225 47.658473969 48.212532043 46.844364166 49.570270538
          40.786808014 40.319747925 36.054542542 32.869842529 20.340085983 16.91742897
          14.189412117 13.120016098 17.739936829 21.682155609 31.460702896 44.082530975
          32.646793365 34.484916687 32.075954437 29.310503006 18.680599213 14.794168472
          13.449362755 21.485834122 28.494934082 25.69552803 25.276071548 21.615098953
          20.080200195 41.602508545 42.306732178 43.845359802 46.271495819 44.619895935
          44.579563141 44.676109314 45.685520172 44.815757751 43.206031799 44.591136932
          43.534500122 46.860561371 45.827739716 46.531986237 44.320953369 44.591770172
          44.738430023 42.801937103 40.880626678 42.315856934 43.008583069 41.230869293
          41.89522934 41.771751404 41.05493927 42.294929504 41.140918732 41.501087189
          19.604948044 19.301952362 16.04750061 19.526130676 20.231319427 20.820354462
          18.099399567 18.725177765 15.32023716 47.242740631 39.732769012 39.780838013
          35.794395447 30.035327911 21.187913895 17.615619659 14.005555153 13.069795609
          17.834947586 21.310777664 33.563690186 39.116363525 39.105537415 42.226783752
          42.287261963 46.249298096 49.278961182 47.172447205 47.42691803 45.844291687
          43.641513824 28.062984467 20.436479568 17.59705162 13.483048439 23.098405838
          31.744796753 35.222442627 30.293609619 44.971733093 31.353059769 25.433265686
          23.30255127 24.832284927 27.185781479 27.783031464 27.638946533 34.01159668
          35.257553101 38.306587219 40.127140045 45.635253906 41.294811249 46.793487549
          46.746803284 44.227924347 44.082458496 46.109447479 39.394695282 34.118320465
          32.815292358 28.226940155 15.558909416 11.703111649 9.8996534348 9.9934072495
          13.042966843 16.195690155 29.019845963 33.167812347 45.705402374 30.418281555
          33.481449127 27.890630722 14.733567238 12.971790314 10.939796448 19.498622894
          26.731403351 23.583677292 24.881372452 22.137178421 19.532342911 17.684684753
          17.697191238 16.605300903 15.425004959 17.268695831 18.089691162 17.54552269
          14.549268723 14.512331009 40.073589325 36.640197754 36.338829041 29.506475449
          28.13833046 14.176114082 11.984308243 8.5284109116 7.9487123489 12.520461082
          16.668680191 27.200668335 33.281352997 33.89995575 36.045898438 45.00069046
          42.900501251 46.467453003 44.160839081 44.717582703 43.511241913 43.465930939
          27.207382202 17.276184082 9.9306602478 13.175567627 18.358545303 25.455955505
          29.533231735 44.052513123 29.006925583 31.43047142 24.853225708 22.793672562
          20.961399078 21.837453842 24.149694443 42.861198425 43.494667053 45.250823975
          44.769599915 42.893054962 42.447189331 44.286708832 46.639358521 46.263237
          44.103542328 44.628070831 47.468517303 45.158729553 43.978656769 46.244686127
          44.649051666 46.676063538 46.706962585 45.744140625 40.998897552 41.576084137
          41.560787201 44.164104462 41.480857849 41.301891327 41.876636505 41.745128632
          41.127624512 41.425998688 36.447490692 12.520924568 18.834873199 32.725059509
          30.380086899 22.318244934 28.296115875 17.939620972 13.229545593 24.904035568
          28.18699646 25.502681732 25.028038025 28.403053284 11.670213699 22.644529343
          29.426109314 23.773504257 21.910320282 11.245299339 33.679718018 29.644172668
          27.950931549 29.302980423 32.180732727 12.315263748 24.426027298 28.169736862
          25.950031281 27.818380356 24.541227341 26.616689682 26.138422012 25.599752426
          25.25860405 15.607132912 6.7515749931 6.9284873009 24.069580078 32.067687988
          32.621551514 24.20662117 19.30616951 14.232294083 34.741413116 24.43529129
          30.526247025 24.271018982 28.289943695 31.537672043 31.499139786 30.029468536
          28.085506439 31.160469055 25.655887604 31.791612625 29.119653702 22.741168976
          29.384824753 22.908899307 31.999425888 29.175130844 31.037883759 32.567604065
          29.58041954 26.080644608 32.041030884 30.614841461 31.353162766 31.317100525
          34.657680511 33.419368744 30.587337494 34.099380493 33.731338501 33.835861206
          34.122364044 28.277706146 31.431415558 30.651468277 27.257118225 24.868989944
          25.212835312 20.002727509 22.708108902 22.12352562 16.581329346 20.609811783
          20.291713715 14.41753006 24.062931061 23.094631195 19.50705719 30.390209198
          30.710855484 27.365375519 26.208831787 22.006168365 20.658437729 20.927949905
          20.445148468 21.375171661 23.750831604 26.103820801 25.797864914 24.468143463
          18.613742828 16.165409088 16.387487411 18.221744537 24.495458603 25.307792664
          24.014379501 21.74877739 20.976165771 20.480215073 21.717340469 24.980148315
          19.030406952 8.3674812317 13.635247231 18.194643021 24.40716362 18.178979874
          23.116508484 26.411336899 22.267457962 23.130186081 25.634622574 24.215608597
          21.809034348 26.003099442 23.085439682 18.82758522 26.156248093 18.954137802
          13.294418335 20.280139923 6.7109594345 21.739227295 23.172584534 30.639324188
          22.983005524 32.02281189 32.652202606 32.808074951 28.958387375 28.601552963
          25.091154099 23.430055618 25.359840393 25.909685135 20.515897751 23.877178192
          26.263381958 21.614051819 24.544624329 28.225646973 23.349077225 34.197414398
          33.248336792 27.617839813 23.172454834 25.713535309 19.016822815 26.78024292
          26.911424637 26.314819336 26.619638443 13.20088768 27.014169693 17.327508926
          26.84022522 22.311306 20.375843048 20.719373703 22.641424179 27.829910278
          26.970731735 20.481889725 24.785263062 20.654571533 21.580972672 25.518198013
          20.681680679 20.533184052 26.45450592 19.193548203 22.799207687 25.901622772
          22.549665451 19.892145157 26.522102356 27.904586792 21.138820648 27.126062393
          24.380933762 24.818069458 24.738176346 24.305030823 21.815591812 26.912555695
          27.511268616 28.484224319 32.863880157 29.359149933 26.018968582 23.987522125
          21.641901016 20.187513351 19.577684402 20.000007629 17.177534103 18.087936401
          20.014976501 17.979068756 22.968214035 23.770294189 19.542524338 29.857133865
          33.726154327 27.384447098 32.237133026 23.8697052 13.051189423 17.968418121
          24.726512909 24.756217957 24.664514542 25.574327469 18.263662338 8.2689800262
          26.440961838 20.728754044 17.409757614 16.30982399 18.503887177 27.103578568
          19.245073318 26.001379013 26.862939835 27.440481186 25.494241714 24.331644058
          24.773263931 19.021034241 24.73575592 24.440740585 26.411119461 22.54076004
          22.842235565 18.772521973 23.007734299 19.856531143 17.658079147 24.207382202
          24.22864151 19.400968552 21.537052155 23.255779266 18.225347519 29.310560226
          27.355453491 23.834856033 25.215076447 19.978235245 24.64622879 18.714185715
          18.156349182 21.194885254 24.570512772 19.246362686 22.070934296 20.080938339
          25.402341843 23.095968246 15.87101841 12.774624825 11.887144089 14.834195137
          20.81385994 31.294237137 37.235610962 34.110076904 27.869140625 31.45643425
          27.002414703 19.777893066 20.823179245 14.761904716 17.069505692 17.163246155
          9.639257431 14.016379356 13.189578056 7.5502767563 22.163173676 19.869884491
          14.588629723 32.428382874 27.779712677 25.698673248 33.959026337 20.532356262
          14.961518288 12.089797974 12.504038811 17.030790329 23.325912476 25.994190216
          32.648700714 21.23069191 12.571228981 10.308074951 12.936043739 19.693130493
          30.408252716 29.969739914 21.199264526 16.187429428 12.102597237 12.13568306
          14.470787048 14.047218323 17.12707901 21.010477066 18.349899292 12.748303413
          11.845664024 12.806360245 17.109226227 27.668859482 27.794628143 33.085308075
          32.400794983 26.496332169 30.372581482 29.69493103 16.335706711 18.258678436
          14.907781601 17.350286484 17.124336243 9.843328476 13.950156212 13.452314377
          7.328813076 18.114507675 15.414901733 12.262891769 30.823812485 26.792850494
          28.230575562 17.816587448 25.356193542 23.240558624 10.977995872 10.208256721
          9.4698886871 23.63403511 21.313343048 23.039022446 26.692918777 13.107539177
          25.003128052 25.855571747 25.380918503 23.647136688 21.049322128 20.847444534
          22.194227219 21.072231293 23.369407654 23.642957687 24.52989769 29.21991539
          28.315372467 29.840190887 24.544929504 21.695148468 24.05122757 18.592885971
          19.166723251 19.443376541 13.74711132 16.578308105 16.176399231 11.917646408
          22.312507629 20.716014862 19.35231781 29.607887268 28.023614883 23.951595306
          24.263122559 22.295703888 20.5534935 21.461507797 24.217142105 25.7415905
          26.48156929 20.875375748 15.715301514 13.361743927 16.410554886 25.951072693
          19.955207825 21.027130127 21.711643219 25.5597229 23.195590973 19.654335022
          22.634714127 24.792995453 21.518865585 23.777427673 17.69635582 24.077907562
          13.477835655 22.488157272 26.149301529 19.381158829 24.260198593 23.875108719
          21.844087601 20.968891144 25.845464706 23.462421417 17.215520859 24.692399979
          23.933320999 13.994493484 23.096635818 18.761642456 14.887578011 9.5881500244
          31.99190712 16.941320419 30.325338364 26.792142868 32.448383331 21.293516159
          18.463443756 22.525026321 19.145511627 17.384355545 20.049196243 18.556678772
          16.749727249 18.60247612 24.804250717 18.156417847 20.963476181 33.568576813
          27.019584656 28.279190063 14.350870132 19.542362213 17.567054749 25.015104294
          27.490003586 26.651144028 25.713811874 18.736305237 24.303159714 24.573598862
          18.992164612 18.077091217 23.474628448 19.898687363 20.164701462 21.345228195
          26.637559891 16.713533401 23.627277374 23.88530159 20.691831589 20.533443451
          23.929597855 18.088209152 19.914518356 22.86781311 17.89012146 20.83086586
          23.639444351 19.907957077 19.529438019 25.061201096 22.967559814 26.34727478
          24.655426025 28.499319077 23.7584095 21.044368744 17.321464539 21.487737656
          22.260356903 29.979341507 22.600866318 26.005619049 25.40587616 32.533603668
          29.065265656 32.698848724 25.830905914 21.758098602 26.166252136 25.589487076
          19.508396149 23.587938309 23.348377228 21.733436584 22.016506195 27.671430588
          24.844268799 23.45368576 32.465454102 26.01089859 33.65688324 30.093397141
          12.342107773 18.032888412 25.155622482 26.162790298 25.875341415 25.572145462
          24.45177269 24.497629166 13.819129944 17.152099609 12.091228485 28.361347198
          22.659128189 19.924131393 22.281826019 20.470245361 26.30450058 19.792291641
          27.445022583 22.383005142 17.989187241 26.056159973 25.990831375 27.240356445
          27.631381989 18.147481918 25.504636765 26.645927429 20.284418106 31.19626236
          25.798698425 28.023290634 24.899082184 20.303342819 26.08351326 26.696231842
          20.653394699 26.795454025 26.709817886 21.090513229 25.767534256 22.541347504
          20.976984024 27.150659561 26.122535706 24.141836166 27.907403946 20.25573349
          23.239601135 27.485671997 21.835540771 19.42930603 19.875869751 23.286050797
          26.256719589 21.596242905 26.557569504 32.575946808 13.362265587 25.986291885
          23.652667999 28.273658752 27.762815475 26.294338226 21.890869141 10.321902275
          23.570636749 25.686201096 25.225193024 30.568731308 26.92665863 35.058998108
          30.047943115 28.165390015 32.24521637 26.345275879 25.647937775 22.841655731
          29.989425659 31.678718567 29.69168663 26.643968582 28.859071732 28.812452316
          29.065643311 26.086227417 32.396965027 29.19288063 30.17965889 29.984481812
          31.115488052 32.088386536 31.518369675 33.595180511 34.450424194 28.752511978
          33.73840332 31.893796921 26.692302704 32.601924896 34.633968353 33.772743225