<?xml version="1.0"?>
<VTKFile type="UnstructuredGrid" version="0.1" byte_order="LittleEndian" header_type="UInt32" compressor="vtkZLibDataCompressor">
  <UnstructuredGrid>
    <Piece NumberOfPoints="853" NumberOfCells="388">
      <PointData Scalars="Contrainte:von Mises">
        <DataArray type="Float32" Name="Contrainte:von Mises" format="ascii" RangeMin="0.033163543791" RangeMax="12.340844154">
          9.200551033 9.2260951996 9.4510707855 8.7869615555 8.7488393784 8.9014863968
          9.7417478561 8.9905147552 6.8760280609 11.244380951 10.480829239 7.2849993706
          7.1049170494 7.3762798309 9.5373926163 10.566727638 10.405677795 9.883275032
          9.7113132477 9.5555362701 9.0912065506 9.5147895813 10.503334045 11.829945564
          7.6837148666 7.9346289635 9.9550638199 10.692027092 6.414973259 9.0347747803
          11.737903595 12.340844154 4.6059193611 5.408164978 4.1972322464 4.4291396141
          1.6716451645 0.64588546753 0.19692347944 0.73023170233 0.89107227325 0.7327914834
          0.30864986777 0.55977791548 2.6625974178 1.8343955278 0.6647349596 0.34336018562
          0.71884959936 0.86855792999 0.70152044296 0.25048205256 0.6740578413 2.185958147
          8.3502206802 8.2078409195 8.2488822937 8.2381792068 2.141561985 0.91558879614
          0.033163543791 0.39435568452 0.43956932425 0.10095138848 0.76103210449 3.6114733219
          2.1901776791 0.89774239063 0.10521382838 0.40953928232 0.410287112 0.084635823965
          0.93291974068 2.468309164 6.1037602425 6.904209137 8.5214309692 3.0369775295
          1.8806041479 2.0560367107 2.383575201 2.9745380878 5.2857089043 7.0531477928
          7.144636631 6.4654464722 6.7416968346 5.5736017227 6.3289923668 2.6420898438
          1.8146492243 1.3038802147 1.3502566814 1.4985636473 2.7316803932 3.9336285591
          6.2957406044 8.5485439301 6.0535159111 4.3459391594 6.8678994179 7.6927576065
          3.2250928879 2.5770046711 7.4704022408 6.2577700615 4.5812320709 6.7536187172
          6.0937080383 3.9127781391 6.2058525085 6.2736783028 4.2484869957 5.2554388046
          5.1445217133 5.8150334358 6.653192997 7.5461678505 2.9177162647 1.8832542896
          2.1526772976 2.3910295963 2.907258749 5.4980607033 7.4575710297 7.3508968353
          6.1365981102 5.5207285881 5.261071682 6.2471604347 6.7742967606 2.5715858936
          2.0692043304 1.3641352654 1.211841464 1.3576915264 2.8064193726 7.1142148972
          6.3867135048 4.697766304 6.6468367577 7.5856733322 2.5478687286 6.5605783463
          6.3043980598 4.1894369125 3.6197340488 4.2100272179 6.9108781815 6.0996665955
          3.3230407238 7.8092188835 5.7099747658 5.2200374603 5.1702389717 7.5378780365
          7.6272358894 9.2411603928 7.2281060219 7.7762751579 8.9541254044 11.154314041
          11.651724815 11.086177826 10.860375404 8.571639061 8.286242485 7.6203422546
          7.1901111603 7.2232813835 9.4931259155 12.248693466 11.691988945 11.707366943
          12.294651985 9.7487821579 11.404372215 10.157161713 6.4555211067 5.5134301186
          4.6409263611 5.3836927414 4.8576960564 4.2989034653 4.9680533409 7.0971236229
          10.113746643 9.4537324905 10.534111023 6.5035300255 1.2077045441 0.22684292495
          0.45621570945 0.74820232391 0.7495225668 0.46125301719 0.22240668535 1.3227741718
          6.0886435509 6.1839733124 1.2438101768 0.22294189036 0.45202493668 0.72735512257
          0.74006849527 0.43206220865 0.22540305555 1.122928381 6.6448016167 10.843554497
          10.420000076 10.939875603 9.7455387115 8.8175029755 8.1955394745 8.8155908585
          8.7466964722 8.0569381714 8.8983707428 9.3878097534 10.991152763 10.512014389
          12.312355995 7.1555099487 1.5269076824 0.42049214244 0.18407729268 0.36428335309
          0.19931283593 0.36887255311 1.6320759058 7.0004248619 6.9238820076 1.628916502
          0.35788574815 0.18184541166 0.36248058081 0.15930686891 0.42957621813 1.6889945269
          7.5987172127 7.0356454849 7.841958046 8.2820997238 11.384166718 11.750922203
          10.288827896 7.9471812248 7.9741539955 8.0481386185 12.248318672 12.04628849
          12.002911568 9.2731027603 4.3656740189 4.3372535706 3.3301081657 3.5298781395
          4.0972795486 9.2547855377 6.236989975 1.5321874619 1.1419996023 0.57677698135
          0.1933529228 0.2493353039 0.4447132349 0.71909314394 0.73184263706 0.88470506668
          0.74439668655 0.72066020966 0.44623056054 0.28990066051 0.1872112304 0.53121334314
          0.96531182528 5.4285821915 2.5049386024 10.124190331 8.6514453888 8.0938472748
          8.2521190643 8.8177509308 8.1977729797 10.163178444 6.9859790802 1.9609084129
          1.4717116356 0.8212736249 0.39466321468 0.052879814059 0.20443661511 0.3853545785
          0.39360421896 0.4010219872 0.19433449209 0.05998845771 0.39658918977 0.78696852922
          1.5497983694 6.0874228477 2.8566024303 3.5963463783 7.726583004 3.1983687878
          1.4310312271 1.8391211033 0.69781535864 0.94793069363 0.84802556038 0.85297763348
          1.2242141962 0.99180036783 1.8509019613 1.4563107491 3.8840148449 2.9363474846
          9.7063579559 3.6474702358 8.4529647827 8.6363229752 7.9539165497 7.5989055634
          7.7727203369 7.7424888611 8.4543352127 3.026522398 7.2072110176 2.8063344955
          1.1098713875 1.5053335428 0.5675457716 0.78850466013 0.20348773897 0.37389156222
          0.39150553942 0.29526236653 0.67108654976 0.45972719789 1.5811803341 1.1941395998
          2.8969008923 2.1785347462 8.1228103638 2.9821534157 7.687432766 8.4296045303
          6.8943524361 6.4952335358 7.5511865616 7.0266904831 9.2068471909 7.2140884399
          8.0894851685 7.0860075951 7.8687796593 4.7687544823 8.4441957474 5.3497786522
          5.070851326 6.6928272247 6.7448849678 6.4370818138 6.880188942 4.7273306847
          7.508646965 6.3621850014 4.6532306671 6.8727202415 8.0410404205 4.4695987701
          2.3846178055 1.9230213165 2.2915186882 2.669852972 4.1459126472 6.0896677971
          7.9624271393 6.768032074 6.4953145981 6.608549118 7.5229201317 6.2843761444
          6.2435822487 3.9832344055 2.1630957127 1.5946635008 1.3452659845 1.4271097183
          2.1415207386 3.2234818935 5.2150225639 7.2987618446 6.2286572456 6.3407335281
          7.3987436295 6.7589912415 5.4998950958 7.6965084076 8.8297843933 8.0213785172
          5.3138608932 4.8951964378 7.6231017113 7.6419920921 4.3609576225 4.1104521751
          5.7136497498 7.8473024368 6.5320005417 4.0348186493 4.1916952133 6.7844181061
          7.4700045586 5.6618924141 7.1401014328 6.8912844658 4.3933730125 5.9148139954
          3.721165657 3.7506184578 3.559779644 3.4673073292 4.7611069679 4.3026514053
          6.0597505569 7.4656968117 6.6896724701 6.661690712 5.6996822357 5.7768602371
          5.7382941246 5.3304982185 6.2635850906 6.007566452 4.2806010246 5.6817593575
          3.8644316196 2.6782670021 3.0112476349 2.594763279 2.5990447998 3.0537550449
          2.8474676609 3.7771601677 5.0522913933 4.6065459251 6.189722538 5.7836747169
          6.3824839592 5.784954071 5.5226287842 6.2533121109 5.7261328697 4.6074233055
          5.8714432716 6.8299689293 5.265789032 5.2884516716 4.6905212402 5.1006731987
          5.9678754807 3.5719733238 8.1710939407 3.095035553 1.391679287 1.8200383186
          0.71424973011 0.93727958202 0.87468475103 0.87680232525 1.2125095129 0.97712284327
          1.7320361137 1.3949793577 4.09968853 2.9740207195 8.2088842392 4.796746254
          8.8411540985 7.7894177437 6.6827764511 6.8378548622 7.1169290543 7.5538468361
          8.6226177216 3.0629899502 7.7337436676 2.683303833 1.123773694 1.5231252909
          0.66000270844 0.9160951376 0.280474931 0.38710814714 0.33759561181 0.16418789327
          0.59680294991 0.34937927127 1.5321983099 1.2053402662 3.4849796295 2.8937487602
          6.9594025612 8.0967445374 8.2294874191 7.9705247879 7.7382569313 7.6853218079
          7.5213904381 9.0567684174 7.6994819641 7.57908535 7.6364078522 4.0123171806
          5.2224736214 8.4362487793 5.0535173416 6.4748802185 6.5215358734 7.0146298409
          6.5652484894 3.6354238987 6.4429550171 7.4776740074 4.5731420517 6.5277748108
          7.7875351906 4.2843523026 2.4094307423 2.0014328957 2.3259110451 2.6178929806
          4.1122431755 6.4053149223 7.4294986725 6.9866485596 6.6840634346 6.7214694023
          6.1042790413 7.1596240997 5.8575429916 7.5065226555 3.7866680622 2.284412384
          1.7399345636 1.3323794603 1.3016564846 2.0540137291 4.0973138809 6.1843647957
          6.1858305931 6.6514611244 6.5377378464 5.6167845726 7.9790186882 7.772313118
          5.1985611916 4.7222766876 4.7063112259 7.7999858856 7.7205786705 4.062640667
          4.0082850456 6.5041184425 7.7592077255 5.4430556297 4.0928263664 5.7613945007
          8.7675209045 7.6813421249 6.9658560753 7.0695991516 6.8520064354 4.3383264542
          5.8162522316 3.6838512421 3.6842460632 3.7398073673 3.6192212105 4.5211744308
          4.181517601 5.8905038834 7.5629029274 6.9355530739 6.4919495583 5.8088307381
          5.7467951775 5.6173267365 5.4409484863 6.1257834435 6.0730924606 4.2083072662
          5.5008487701 3.9123015404 2.9014277458 3.4234342575 2.6275455952 2.6034126282
          2.7204284668 2.5532562733 3.487341404 5.9859156609 4.6797161102 6.0863876343
          6.2574262619 5.6349573135 5.5793247223 5.9217939377 5.5254426003 7.4934368134
          5.702709198 4.6388049126 5.3676886559 6.996758461 5.5532407761 5.1290307045
          4.7852287292 6.0096325874 4.0970892906 5.6229929924 5.5967516899 4.551607132
          6.6468772888 6.4777841568 6.9471564293 6.612991333 4.7161283493 4.9100642204
          5.8108224869 3.8330874443 8.0461921692 7.2156682014 7.4839220047 7.6708397865
          8.0442028046 9.9928817749 7.1313157082 7.2761750221 6.8211345673 7.8345775604
          9.2947044373 7.6653203964 2.4936225414 2.6785640717 1.0751839876 0.82386350632
          0.559017241 0.36831492186 0.22160302103 0.34140726924 0.60989528894 1.6236525774
          2.0297622681 2.7886006832 7.5938296318 7.199007988 1.5452159643 0.19921854138
          0.36517190933 1.181219101 3.8032274246 8.1074733734 8.7383203506 7.8626298904
          8.4863262177 7.597820282 8.4004812241 7.7430224419 9.3469829559 8.1424779892
          3.0803859234 3.0808234215 1.3734203577 0.70466756821 0.87847101688 1.22649014
          1.8226715326 3.8368046284 8.5788965225 7.6808772087 1.8760772943 0.93516051769
          0.85442167521 0.98376220465 1.403162241 2.7998569012 4.6763906479 5.8648643494
          7.1379523277 6.7560873032 5.3104839325 1.2846608162 1.4220099449 2.7327759266
          7.8098187447 4.4957051277 3.0854902267 3.9513280392 3.9214160442 4.246696949
          6.7164936066 4.2521710396 2.9484176636 2.3773989677 1.8903582096 1.9635455608
          2.1289963722 2.3161394596 2.3851258755 2.6816699505 2.9154894352 4.0290737152
          5.2931442261 6.1569104195 7.6375579834 6.5762047768 6.7522406578 6.2820487022
          7.4929757118 6.2685399055 6.0750961304 3.7762172222 2.6100788116 2.1788401604
          1.343277216 0.2679463923 1.3829780817 1.377638936 2.0434780121 3.2750887871
          4.6912841797 3.4723801613 5.8155994415 6.217353344 7.5807747841 6.0649051666
          6.2549462318 7.6108999252 6.4622912407 8.0949525833 6.8260922432 7.9340701103
          6.7517523766 5.6393556595 7.8466701508 5.4545993805 4.0638642311 7.4409060478
          6.1282453537 4.0141143799 7.8436646461 5.8471522331 6.7996101379 4.5052599907
          2.9997313023 7.5440826416 6.8798794746 6.3000855446 5.2955851555 8.5343475342
          7.6905608177 6.9847044945 6.9628744125 7.579117775 5.7345600128 4.3498735428
          3.6749508381 3.6678082943 5.9623761177 3.5252578259 4.1896252632 4.5948309898
          6.8203225136 5.8018093109 6.5954351425 7.2940330505 6.9918775558 7.3734068871
          5.9169888496 5.6802983284 5.5006146431 6.1501126289 6.0872058868 6.4661002159
          5.4859423637 4.2015323639 3.740111351 1.9535208941 1.7172679901 3.1131446362
          2.6402957439 2.6346461773 2.7726335526 4.5081057549 3.4446487427 4.6223869324
          5.8050103188 5.9775156975 5.7702350616 5.9419150352 5.7642960548 3.7470948696
          7.7145266533 8.6312379837 5.1274170876 4.8553442955 6.8688249588 4.5606169701
          5.1916851997 5.2730712891 2.6787650585 5.3537425995 5.4149565697 2.6971848011
          4.6587076187 6.6230921745 5.7641310692 7.4193053246 5.7732906342 5.8357100487
          7.3816242218 6.6268463135 6.5014743805 5.676876545 5.1547374725 5.4808282852
          5.2091822624 5.0966148376 5.9973464012 5.5062060356 7.0416560173 0.26326808333
          0.44242563844 1.1654919386 8.0269546509 7.521021843 6.8657531738 6.5150671005
          6.1604013443 5.491771698 2.2704970837 5.0454545021 5.7218017578 5.7878713608
          5.6500835419 4.2522449493 8.0325708389 4.731906414 2.7864460945 6.8095030785
          4.6385908127
        </DataArray>
      </PointData>
      <CellData>
      </CellData>
      <Points>
        <DataArray type="Float32" Name="Points" NumberOfComponents="3" format="ascii" RangeMin="10" RangeMax="69.009145788">
          10 10 0 10 -10 0
          10 -10 10 10 10 10
          -10 10 0 -10 10 10
          -10 -10 0 -10 -10 10
          -65.286003113 -20 0 -45.825759888 -20 0
          -45.825759888 -20 10 -65.286003113 -20 10
          -65.286003113 15 0 -65.286003113 15 10
          -47.696956635 15 0 -47.696956635 15 10
          47.696956635 15 0 47.696956635 15 10
          65.286003113 15 0 65.286003113 15 10
          65.286003113 -20 0 65.286003113 -20 10
          45.825759888 -20 0 45.825759888 -20 10
          10 0 0 10 0 10
          0 10 0 0 10 10
          -10 0 0 -10 0 10
          0 -10 0 0 -10 10
          -65.286003113 -8.3333339691 0 -65.286003113 3.3333334923 0
          -65.286003113 3.3333334923 10 -65.286003113 -8.3333339691 10
          42.418079376 26.470855713 0 34.433826447 36.253433228 0
          24.253423691 43.723808289 0 12.526164055 48.405529022 0
          3.061617105e-15 50 0 -12.526164055 48.405529022 0
          -24.253423691 43.723808289 0 -34.433826447 36.253433228 0
          -42.418079376 26.470855713 0 42.418079376 26.470855713 10
          34.433826447 36.253433228 10 24.253423691 43.723808289 10
          12.526164055 48.405529022 10 3.061617105e-15 50 10
          -12.526164055 48.405529022 10 -24.253423691 43.723808289 10
          -34.433826447 36.253433228 10 -42.418079376 26.470855713 10
          65.286003113 -8.3333339691 0 65.286003113 3.3333334923 0
          65.286003113 -8.3333339691 10 65.286003113 3.3333334923 10
          -39.217941284 -31.015367508 0 -30.021717072 -39.983703613 0
          -18.844041824 -46.313091278 0 -6.4226465225 -49.585781097 0
          6.4226465225 -49.585781097 0 18.844041824 -46.313091278 0
          30.021717072 -39.983703613 0 39.217941284 -31.015367508 0
          -39.217941284 -31.015367508 10 -30.021717072 -39.983703613 10
          -18.844041824 -46.313091278 10 -6.4226465225 -49.585781097 10
          6.4226465225 -49.585781097 10 18.844041824 -46.313091278 10
          30.021717072 -39.983703613 10 39.217941284 -31.015367508 10
          -29.616384506 -24.134590149 10 -36.687141418 -13.420768738 10
          -50.999771118 -9.8844385147 10 -21.46434021 -33.772315979 10
          -12.422431946 -37.871730804 10 -2.8321137428 -36.393333435 10
          8.4611759186 -35.200702667 10 19.062950134 -33.937801361 10
          26.2605896 -26.683101654 10 34.75120163 -20.76568985 10
          52.709178925 -7.8739709854 10 39.109962463 -11.982073784 10
          51.342559814 4.8626270294 10 33.123054504 20.372514725 10
          38.025665283 9.131937027 10 25.90136528 30.73469162 10
          16.514965057 34.661895752 10 5.9759407043 36.955722809 10
          -4.5423107147 36.570430756 10 -14.476904869 36.547481537 10
          -22.231651306 30.863380432 10 -31.017688751 25.975046158 10
          -34.862968445 17.039600372 10 -52.951477051 2.8022372723 10
          -39.956336975 7.6337532997 10 -1.0289134979 -23.078239441 10
          12.467216492 -21.742271423 10 24.993703842 -13.647993088 10
          21.940404892 -3.3307871819 10 -21.869897842 0.54492837191 10
          -22.974290848 -11.261487961 10 -14.331619263 -23.980308533 10
          -9.8880777359 23.434122086 10 -21.441566467 18.767402649 10
          -26.771030426 8.6045446396 10 1.6088008881 23.49889946 10
          24.391946793 8.0296602249 10 20.2846241 20.304773331 10
          10.886460304 24.561210632 10 -36.665836334 -2.5350797176 10
          36.567493439 -1.9697728157 10 -29.937271118 -24.693220139 0
          -37.784507751 -13.40375042 0 -52.333740234 -8.0482244492 0
          -21.367843628 -33.879234314 0 -12.207093239 -37.87443924 0
          -2.4100203514 -36.016590118 0 8.9899120331 -35.115364075 0
          19.654403687 -34.153217316 0 26.610923767 -26.198703766 0
          34.2721138 -20.11006546 0 -51.217037201 4.7723956108 0
          -37.97706604 9.0184669495 0 -33.032829285 20.385753632 0
          33.497314453 20.985754013 0 39.303462982 9.2930335999 0
          52.833637238 3.1416871548 0 25.697011948 30.881902695 0
          15.629559517 34.072029114 0 4.8562092781 36.324455261 0
          -5.8156452179 37.081420898 0 -15.838466644 36.974761963 0
          -24.192565918 30.080183029 0 51.356719971 -9.5306835175 0
          38.14509964 -11.717510223 0 0.62704348564 -22.052330017 0
          14.450199127 -22.408161163 0 23.702438354 -11.202346802 0
          22.047794342 1.0933430195 0 26.409629822 10.281358719 0
          19.786275864 20.767303467 0 8.1346321106 22.660615921 0
          -2.5339281559 23.531515121 0 -12.76366806 25.340272903 0
          -20.834341049 18.296068192 0 -24.573856354 7.4564843178 0
          -21.815958023 -3.4819042683 0 -24.434268951 -13.577003479 0
          -13.790426254 -24.184972763 0 -36.505950928 -2.4232628345 0
          36.716957092 -1.3697654009 0 10 5 0
          10 -5 0 10 -10 5
          10 5 10 10 -5 10
          10 10 5 -5 10 0
          5 10 0 -5 10 10
          5 10 10 -10 10 5
          -10 -5 0 -10 5 0
          -10 -5 10 -10 5 10
          -10 -10 5 5 -10 0
          -5 -10 0 5 -10 10
          -5 -10 10 -55.555877686 -20 0
          -45.825759888 -20 5 -55.555877686 -20 10
          -65.286003113 -20 5 -65.286003113 -14.166667938 0
          -65.286003113 -2.5 0 -65.286003113 9.1666660309 0
          -65.286003113 9.1666660309 10 -65.286003113 -2.5 10
          -65.286003113 -14.166667938 10 -65.286003113 15 5
          -56.491477966 15 0 -56.491477966 15 10
          -47.696956635 15 5 45.421089172 20.902740479 0
          38.736011505 31.615203857 0 29.580400467 40.311286926 0
          18.538181305 46.43636322 0 6.3136191368 49.599781036 0
          -6.3136191368 49.599781036 0 -18.538181305 46.43636322 0
          -29.580400467 40.311286926 0 -38.736011505 31.615203857 0
          -45.421089172 20.902740479 0 45.421089172 20.902740479 10
          38.736011505 31.615203857 10 29.580400467 40.311286926 10
          18.538181305 46.43636322 10 6.3136191368 49.599781036 10
          -6.3136191368 49.599781036 10 -18.538181305 46.43636322 10
          -29.580400467 40.311286926 10 -38.736011505 31.615203857 10
          -45.421089172 20.902740479 10 47.696956635 15 5
          56.491477966 15 0 56.491477966 15 10
          65.286003113 15 5 65.286003113 -14.166667938 0
          65.286003113 -2.5 0 65.286003113 9.1666660309 0
          65.286003113 -14.166667938 10 65.286003113 -2.5 10
          65.286003113 9.1666660309 10 65.286003113 -20 5
          55.555877686 -20 0 55.555877686 -20 10
          45.825759888 -20 5 -42.877059937 -25.720766068 0
          -34.9090271 -35.796085358 0 -24.636981964 -43.508838654 0
          -12.738877296 -48.34998703 0 -1.9142842964e-14 -50 0
          12.738877296 -48.34998703 0 24.636981964 -43.508838654 0
          34.9090271 -35.796085358 0 42.877059937 -25.720766068 0
          -42.877059937 -25.720766068 10 -34.9090271 -35.796085358 10
          -24.636981964 -43.508838654 10 -12.738877296 -48.34998703 10
          -1.9142842964e-14 -50 10 12.738877296 -48.34998703 10
          24.636981964 -43.508838654 10 34.9090271 -35.796085358 10
          42.877059937 -25.720766068 10 10 5 5
          10 -5 5 10 0 5
          -5 10 5 5 10 5
          0 10 5 -10 -5 5
          -10 5 5 -10 0 5
          5 -10 5 -5 -10 5
          0 -10 5 -55.555877686 -20 5
          -65.286003113 -14.166667938 5 -65.286003113 -8.3333339691 5
          -65.286003113 -2.5 5 -65.286003113 3.3333334923 5
          -65.286003113 9.1666660309 5 -56.491477966 15 5
          45.421089172 20.902740479 5 42.418079376 26.470855713 5
          38.736011505 31.615203857 5 34.433826447 36.253433228 5
          29.580400467 40.311286926 5 24.253423691 43.723808289 5
          18.538181305 46.43636322 5 12.526164055 48.405529022 5
          6.3136191368 49.599781036 5 -8.0406135648e-15 50 5
          -6.3136191368 49.599781036 5 -12.526164055 48.405529022 5
          -18.538181305 46.43636322 5 -24.253423691 43.723808289 5
          -29.580400467 40.311286926 5 -34.433826447 36.253433228 5
          -38.736011505 31.615203857 5 -45.421089172 20.902740479 5
          -42.418079376 26.470855713 5 56.491477966 15 5
          65.286003113 -14.166667938 5 65.286003113 -2.5 5
          65.286003113 -8.3333339691 5 65.286003113 9.1666660309 5
          65.286003113 3.3333334923 5 55.555877686 -20 5
          -42.877059937 -25.720766068 5 -39.217941284 -31.015367508 5
          -34.9090271 -35.796085358 5 -30.021717072 -39.983703613 5
          -24.636981964 -43.508838654 5 -18.844041824 -46.313091278 5
          -12.738877296 -48.34998703 5 -6.4226465225 -49.585781097 5
          -1.9142842964e-14 -50 5 6.4226465225 -49.585781097 5
          12.738877296 -48.34998703 5 18.844041824 -46.313091278 5
          24.636981964 -43.508838654 5 30.021717072 -39.983703613 5
          34.9090271 -35.796085358 5 42.877059937 -25.720766068 5
          39.217941284 -31.015367508 5 -34.417163849 -27.574979782 10
          -37.721069336 -22.067296982 10 -29.819049835 -32.059146881 10
          -20.154190063 -40.042701721 10 -25.743028641 -36.878009796 10
          -9.422539711 -43.728752136 10 -15.633235931 -42.092407227 10
          1.7952666283 -42.989555359 10 -4.6273798943 -42.989555359 10
          13.652608871 -40.756896973 10 7.4419112206 -42.393241882 10
          24.542333603 -36.96075058 10 18.953495026 -40.12544632 10
          32.739265442 -28.849235535 10 28.141153336 -33.333400726 10
          40.288482666 -20.382844925 10 36.984573364 -25.890529633 10
          58.997589111 -13.93698597 10 49.267467499 -13.93698597 10
          58.997589111 -8.1036520004 10 58.997589111 -2.270318985 10
          58.314281464 9.9313144684 10 58.314281464 4.0979800224 10
          49.519760132 9.9313144684 10 37.770565033 23.421686172 10
          40.410003662 17.686256409 10 33.778442383 28.312973022 10
          25.077396393 37.229251862 10 30.167596817 33.494064331 10
          14.520564079 41.533714294 10 20.384195328 39.19285202 10
          2.9879703522 43.477863312 10 9.2510528564 42.680625916 10
          -8.5342378616 42.487979889 10 -2.2711553574 43.28521347 10
          -19.365163803 40.13564682 10 -13.501534462 42.47650528 10
          -28.332738876 33.55840683 10 -23.242538452 37.29359436 10
          -36.717884064 26.222951889 10 -32.725757599 31.114242554 10
          -41.279964447 16.019800186 10 -38.640525818 21.75522995 10
          -59.118736267 8.9011182785 10 -50.32421875 8.9011182785 10
          -59.118736267 3.0677852631 10 -59.118736267 -2.7655482292 10
          -58.142883301 -14.942218781 10 -58.142883301 -9.1088857651 10
          -48.412761688 -14.942218781 10 4.485543251 -16.53911972 10
          11.233608246 -15.871134758 10 -5.514456749 -16.53911972 10
          -0.51445674896 -16.53911972 10 -15.934949875 -4.7275357246 10
          -16.48714447 -10.630744934 10 -15.934949875 5.2724642754 10
          -15.934949875 0.27246418595 10 -4.944038868 16.717060089 10
          -9.9440393448 16.717060089 10 5.804400444 16.749448776 10
          0.80440044403 16.749448776 10 17.195972443 4.0148301125 10
          17.195972443 9.0148296356 10 15.970202446 -6.6653938293 10
          15.970202446 -1.6653935909 10 -33.151763916 -18.777679443 10
          -41.256450653 -16.710384369 10 -25.540361404 -28.953454971 10
          -16.943386078 -35.822021484 10 -7.6272730827 -37.132530212 10
          2.8145313263 -35.797019958 10 13.762063026 -34.569252014 10
          22.661769867 -30.3104496 10 30.505897522 -23.724395752 10
          42.467857361 -15.991038322 10 36.930583954 -16.373882294 10
          45.909568787 -9.9280223846 10 52.025867462 -1.505671978 10
          42.861312866 12.065968513 10 44.684112549 6.9972820282 10
          35.574356079 14.752225876 10 29.512207031 25.553604126 10
          21.208162308 32.698295593 10 11.245451927 35.808807373 10
          0.7168148756 36.763076782 10 -9.5096073151 36.558956146 10
          -18.354278564 33.705432892 10 -26.624670029 28.419212341 10
          -32.940326691 21.507324219 10 -43.826652527 11.316876411 10
          -37.409656525 12.336677551 10 -46.453910828 5.2179956436 10
          -51.975627899 -3.541100502 10 -43.843456268 -11.652603149 10
          5.7191510201 -22.410255432 10 18.730459213 -17.695133209 10
          17.496850967 -11.823996544 10 -12.165808678 -16.990152359 10
          -7.6802659035 -23.529272079 10 -22.422094345 -5.3582801819 10
          -18.652956009 -17.6208992 10 -18.385515213 9.302271843 10
          -24.320465088 4.5747365952 10 -4.1396384239 23.466510773 10
          -15.664823532 21.100761414 10 -15.72078228 14.383701324 10
          10.443229675 17.280605316 10 6.2476305962 24.030054092 10
          23.166175842 2.3494365215 10 22.338285446 14.167217255 10
          15.14231205 15.152386665 10 23.467054367 -8.4893903732 10
          -26.29533577 -17.698040009 10 -29.830715179 -12.341128349 10
          -17.897979736 -28.876312256 10 -21.974000931 -24.057449341 10
          -13.377025604 -30.926017761 10 -8.5818662643 -30.186820984 10
          3.7161312103 -29.139471054 10 -1.9305136204 -29.735786438 10
          15.765081406 -27.840034485 10 10.464196205 -28.471488953 10
          19.363903046 -24.212686539 10 29.87245369 -17.206842422 10
          25.627147675 -20.165548325 10 32.051830292 -12.815032959 10
          44.638336182 -4.9218716621 10 37.838726044 -6.9759230614 10
          43.955024719 1.4464271069 10 37.296577454 3.5810825825 10
          28.757499695 14.201086998 10 31.208808899 8.5807991028 10
          23.09299469 25.519733429 10 26.703838348 20.33864212 10
          18.399793625 27.483333588 10 8.4312009811 30.758466721 10
          13.700713158 29.611553192 10 -1.4667549133 30.034664154 10
          3.7923705578 30.227310181 10 -12.182491302 29.990802765 10
          -7.2151947021 30.00227356 10 -16.059864044 27.148752213 10
          -26.229627609 22.371225357 10 -21.836608887 24.815391541 10
          -28.152267456 17.903501511 10 -33.363685608 8.1191492081 10
          -30.817001343 12.822072983 10 -44.8086586 0.13357871771 10
          -38.311088562 2.5493369102 10 -43.832801819 -6.2097592354 10
          -36.676490784 -7.9779243469 10 -29.267868042 -0.99507570267 10
          -29.820062637 -6.8982844353 10 -24.106300354 13.685974121 10
          -31.718437195 3.0347325802 10 15.585542679 22.432991028 10
          29.253948212 -2.6502799988 10 30.479719162 3.0299437046 10
          30.780597687 -7.8088827133 10 -34.577606201 -27.854293823 0
          -37.881515503 -22.346609116 0 -29.979496002 -32.338459015 0
          -20.10594368 -40.096160889 0 -25.69478035 -36.931465149 0
          -9.3148698807 -43.730110168 0 -15.525568008 -42.093765259 0
          2.006313324 -42.801185608 0 -4.4163331985 -42.801185608 0
          13.916976929 -40.714225769 0 7.7062792778 -42.350574493 0
          24.838062286 -37.068458557 0 19.249223709 -40.233154297 0
          32.914432526 -28.607034683 0 28.316322327 -33.091201782 0
          40.048934937 -20.055034637 0 36.745025635 -25.56271553 0
          -49.079750061 -14.024112701 0 -58.809871674 -14.024112701 0
          -58.809871674 -8.1907787323 0 -58.809871674 -2.3574457169 0
          -58.25151825 4.0528640747 0 -58.25151825 9.8861980438 0
          -49.456996918 9.8861980438 0 37.957695007 23.728305817 0
          40.597137451 17.992876053 0 33.965572357 28.619594574 0
          24.975219727 37.302856445 0 30.065420151 33.5676651 0
          14.077861786 41.238780975 0 19.941492081 38.897918701 0
          2.4281046391 43.162227631 0 8.6911869049 42.364990234 0
          -9.1709051132 42.743473053 0 -2.9078226089 43.540706635 0
          -20.045946121 40.34928894 0 -14.182314873 42.6901474 0
          -29.31319809 33.166805267 0 -24.222995758 36.901996613 0
          -37.725456238 23.42830658 0 -33.733325958 28.319591522 0
          -40.364894867 17.692876816 0 50.265304565 9.0708436966 0
          59.059822083 9.0708436966 0 58.321361542 -8.9320077896 0
          58.321361542 -14.765340805 0 59.059822083 3.2375102043 0
          59.059822083 -2.5958230495 0 48.591236115 -14.765340805 0
          0.31352174282 -16.026165009 0 5.3135213852 -16.026165009 0
          -4.686478138 -16.026165009 0 16.023897171 0.54667150974 0
          16.023897171 5.5466709137 0 16.851219177 -10.601173401 0
          16.023897171 -4.4533286095 0 -1.2669640779 16.765758514 0
          -6.2669639587 16.765758514 0 9.067317009 16.330307007 0
          4.0673160553 16.330307007 0 -15.907979012 -1.7409521341 0
          -15.907979012 -6.7409520149 0 -17.286928177 8.7282428741 0
          -17.286928177 3.7282421589 0 -33.86089325 -19.048484802 0
          -41.80513382 -16.701873779 0 -25.652557373 -29.28622818 0
          -16.787467957 -35.876838684 0 -7.3085565567 -36.945514679 0