<?xml version="1.0"?>
<VTKFile type="UnstructuredGrid" version="0.1" byte_order="LittleEndian" header_type="UInt32" compressor="vtkZLibDataCompressor">
  <UnstructuredGrid>
    <Piece NumberOfPoints="3296" NumberOfCells="1812">
      <PointData Scalars="Contrainte:von Mises">
        <DataArray type="Float32" Name="Contrainte:von Mises" format="ascii" RangeMin="0.90737444162" RangeMax="72.525772095">
          46.531539917 42.73166275 45.755485535 45.417957306 51.243202209 54.266807556
          54.147838593 51.250026703 9.449877739 23.882463455 19.777835846 19.655395508
          22.963983536 8.6599283218 8.6236572266 21.173458099 19.862104416 25.5111866
          19.824922562 8.3985776901 53.322105408 53.020870209 52.286079407 55.921726227
          40.156574249 39.030109406 42.809490204 42.034908295 44.870685577 44.694667816
          38.743537903 38.015674591 36.764396667 28.034729004 18.4454422 10.605679512
          5.6784052849 3.4794406891 5.3982996941 11.004957199 18.114091873 28.422086716
          34.998382568 26.670625687 18.529335022 11.077618599 5.8314785957 3.9682414532
          5.796713829 10.954442024 18.21307373 26.940839767 54.570423126 39.258529663
          31.275083542 26.346525192 31.295444489 32.419410706 30.603408813 40.718616486
          52.550479889 52.310024261 53.292995453 52.590774536 42.708053589 33.059806824
          30.494791031 29.254928589 29.86485672 33.561172485 38.804927826 52.572937012
          51.777767181 48.277057648 11.481738091 31.333715439 16.394828796 8.8060855865
          19.587295532 19.596170425 19.553663254 16.621587753 8.9338350296 13.352377892
          29.092021942 28.029752731 12.389068604 15.40711689 14.994984627 46.353538513
          56.460601807 58.53748703 56.738636017 46.29164505 15.451752663 14.280506134
          40.723445892 54.707004547 50.368888855 50.325523376 50.527713776 51.799182892
          50.416210175 52.510349274 42.789348602 19.854728699 20.521314621 20.051498413
          25.815431595 33.188354492 36.170127869 33.551532745 25.523872375 18.645792007
          19.720849991 40.521419525 53.874557495 52.054130554 55.461875916 52.391124725
          51.087787628 49.471904755 54.041374207 39.864654541 20.135887146 17.859012604
          24.785999298 32.850791931 35.946773529 33.141288757 24.843460083 17.668626785
          20.797590256 19.860370636 19.413604736 13.785876274 14.933799744 46.278579712
          56.451786041 58.474575043 56.894138336 46.983142853 15.244020462 19.849433899
          29.311319351 11.372958183 7.2489695549 15.963140488 7.3706350327 17.550395966
          54.223682404 33.844360352 26.033685684 15.061579704 14.564490318 25.450563431
          34.562847137 48.262424469 31.821527481 25.382698059 15.461770058 15.576766014
          24.429893494 30.669553757 40.046470642 45.864875793 41.846038818 62.304538727
          53.236251831 58.590450287 59.832324982 45.496547699 44.498146057 62.87694931
          58.258617401 49.461723328 48.815563202 52.178226471 53.135829926 50.603168488
          45.862140656 47.239055634 48.691497803 52.068744659 53.671981812 51.140514374
          45.738044739 57.496124268 61.779907227 13.624752998 6.6291904449 9.4539546967
          13.615227699 8.8569793701 13.288785934 43.967517853 43.314144135 34.735881805
          44.820701599 43.545146942 14.068134308 10.106657028 13.243654251 13.600379944
          9.8367490768 14.492432594 20.059480667 20.496419907 10.869532585 5.7754607201
          2.573420763 2.333889246 5.0939154625 10.072181702 13.355446815 43.502986908
          21.017408371 7.9674625397 5.2050204277 7.5420646667 9.6610059738 17.918413162
          30.204200745 46.722507477 37.033782959 17.199476242 8.0302085876 5.5394868851
          5.6302032471 7.640768528 17.657331467 31.451885223 46.057998657 46.887115479
          19.341173172 32.63684845 36.514537811 22.650276184 15.854009628 12.563796997
          18.350841522 20.789669037 20.710226059 12.809105873 16.617095947 34.198795319
          28.389024734 30.038059235 33.31734848 27.831447601 28.382083893 29.870246887
          30.7514534 28.649877548 23.655864716 24.640810013 27.281553268 29.613918304
          30.891677856 34.719467163 17.604429245 18.255050659 21.737565994 29.621040344
          31.971830368 31.379896164 29.217569351 21.424282074 16.45208931 32.293445587
          32.766391754 25.563091278 22.644205093 22.933355331 22.245321274 31.574821472
          29.851869583 27.858739853 31.646900177 29.520721436 27.697563171 20.625305176
          20.458654404 23.712532043 28.887647629 30.682027817 28.246149063 18.921300888
          18.34249115 27.79970932 34.155223846 34.262264252 28.151062012 18.887914658
          18.856298447 20.824878693 33.217910767 30.571487427 26.260324478 22.745164871
          22.277721405 26.129264832 29.442361832 31.043956757 29.978809357 18.663568497
          19.634744644 29.626728058 34.707733154 35.171443939 29.493406296 24.366580963
          18.869234085 16.720020294 23.588813782 38.553451538 37.160938263 37.47341156
          37.742828369 41.079746246 41.338241577 36.693775177 21.025995255 8.1456985474
          13.167951584 28.250099182 31.421888351 30.823862076 30.749353409 30.34923172
          24.908943176 23.539237976 28.416946411 33.606140137 36.627738953 19.088827133
          15.794826508 20.834526062 13.347201347 18.044565201 13.26774025 21.770917892
          19.16510582 31.742235184 17.675016403 48.51947403 33.432144165 28.363414764
          27.691015244 29.854259491 23.616069794 38.25151062 39.176204681 36.832870483
          36.613773346 36.839412689 34.374832153 38.029987335 20.273572922 10.575058937
          27.321090698 31.775630951 33.645626068 33.630851746 28.872552872 26.373737335
          21.941455841 11.151506424 4.9327054024 8.0413703918 18.019521713 19.600568771
          19.562349319 15.767784119 46.670444489 48.286956787 45.563579559 53.597320557
          49.848258972 49.804199219 48.836437225 49.343757629 44.663757324 47.708969116
          47.949035645 50.85055542 53.254669189 33.746040344 18.190294266 22.573286057
          40.856182098 53.467876434 59.574951172 53.703361511 37.072631836 32.757629395
          43.366931915 47.660961151 48.429611206 29.401496887 16.918552399 25.643259048
          43.486980438 52.236248016 57.358436584 39.325691223 34.434761047 37.28944397
          48.653713226 63.737594604 24.996635437 15.044784546 14.379681587 14.131456375
          22.845405579 36.22278595 37.322238922 24.909391403 23.564441681 24.106977463
          29.63028717 44.315830231 46.416004181 47.943325043 48.993644714 45.462501526
          53.428104401 48.774162292 49.761745453 47.091098785 49.781303406 46.259304047
          47.947975159 50.96635437 23.277442932 17.021133423 9.4859542847 9.8628311157
          18.331899643 30.738355637 39.807556152 38.557941437 22.49096489 21.673265457
          30.653450012 29.326768875 10.947328568 6.7154626846 7.8007888794 8.9887504578
          7.0222978592 4.6410884857 7.7518773079 5.3836746216 5.4521145821 5.3362045288
          5.2459425926 15.405584335 36.372116089 5.7766442299 15.235987663 36.331409454
          32.832180023 18.55452919 11.57614994 8.429315567 12.043452263 18.627754211
          28.127119064 30.249040604 31.088218689 36.39691925 37.473236084 28.748197556
          38.501068115 37.076385498 38.34041214 32.927158356 39.167545319 38.886569977
          7.2509474754 6.6192584038 6.3979444504 32.425132751 30.408664703 20.502958298
          11.993010521 11.1304636 14.329289436 36.562854767 34.251060486 34.141429901
          29.247337341 28.03253746 34.759716034 39.588943481 39.587791443 29.086959839
          36.485015869 30.643693924 22.517343521 38.349414825 34.029315948 32.146888733
          35.730575562 32.059238434 37.845798492 8.8519496918 2.1857123375 13.737565994
          32.266738892 26.099863052 16.255254745 14.749287605 14.908498764 39.464694977
          4.9256749153 36.572486877 17.710510254 37.524909973 41.097770691 36.904289246
          23.328308105 14.762705803 8.2657909393 4.5025844574 4.2041330338 8.0659503937
          15.406103134 23.465177536 36.11567688 39.694553375 39.729576111 36.721176147
          22.968273163 15.444703102 8.4532394409 4.2692146301 4.1907463074 8.2191810608
          15.09732151 22.417125702 35.37727356 54.794124603 51.363929749 34.919723511
          28.59287262 27.08114624 37.375026703 38.089775085 41.035324097 48.69348526
          60.073692322 48.464267731 52.882099152 48.894256592 51.248329163 52.990276337
          51.195529938 37.93699646 30.568325043 28.718524933 27.972618103 29.733419418
          41.882556915 48.283771515 54.473262787 47.805580139 54.556098938 47.020160675
          54.049674988 7.3150453568 19.603235245 41.720691681 20.585578918 11.507838249
          6.5896248817 22.427078247 19.211862564 19.530040741 19.681900024 19.07248497
          23.922506332 20.192602158 11.502533913 5.467903614 6.6297187805 19.61662674
          43.701957703 41.898147583 19.851085663 5.457171917 8.6208753586 17.983829498
          29.10723114 53.255886078 58.938373566 58.640460968 53.101337433 29.821493149
          21.200737 8.6364440918 32.452613831 50.941482544 58.046298981 58.55229187
          60.877410889 61.005550385 50.272872925 59.26914978 49.94694519 33.155918121
          24.327739716 19.297977448 20.890726089 18.470758438 21.178049088 29.421205521
          35.188411713 35.062660217 29.193372726 20.869472504 18.039165497 20.71588707
          33.01953125 58.370574951 52.495868683 60.949150085 51.557056427 51.453117371
          50.419242859 52.056152344 49.592102051 33.178638458 20.868247986 18.168479919
          20.265233994 29.185756683 35.141685486 35.326629639 29.035211563 20.241636276
          17.873188019 20.848783493 22.506494522 19.397079468 19.503063202 19.747056961
          9.2029495239 17.244878769 29.170763016 53.632980347 58.903469086 58.743526459
          53.314281464 30.039546967 20.829629898 10.393435478 42.411998749 20.53597641
          5.9280185699 6.2350935936 11.740022659 20.604101181 5.6796107292 11.402410507
          19.242380142 54.473892212 54.648448944 37.480056763 28.626605988 19.736671448
          12.985221863 19.84585762 27.707555771 41.105880737 55.715049744 48.388332367
          37.681236267 34.090763092 19.510257721 13.205843925 19.255514145 28.340787888
          37.01984024 45.472770691 38.799884796 46.500591278 47.745998383 40.511554718
          64.534187317 60.596775055 50.778015137 54.329761505 60.243686676 60.728805542
          43.524684906 44.137145996 45.389759064 64.659408569 62.157455444 55.405273438
          47.055427551 47.899219513 51.839523315 53.699119568 60.511886597 48.173538208
          46.953788757 47.015235901 48.383369446 52.015670776 53.654548645 61.419849396
          48.29271698 46.815380096 55.476051331 64.19745636 58.732250214 21.143636703
          9.0212211609 9.0956525803 12.093787193 26.432975769 8.4060297012 19.734436035
          46.928981781 48.093273163 41.870319366 36.808769226 38.61448288 45.885215759
          44.315315247 46.723026276 21.42035675 18.301078796 10.453507423 13.646784782
          11.434467316 9.5414619446 19.431520462 25.769794464 26.7682724 28.947343826
          22.569314957 29.58417511 18.366954803 10.156815529 13.417469978 5.348212719
          7.5795812607 2.9267475605 3.8050968647 3.6653809547 2.4786043167 7.8287920952
          5.0864481926 13.241026878 9.8443861008 23.086427689 18.4028759 28.480596542
          25.322328568 16.823364258 19.819177628 9.8195495605 12.536390305 5.1398949623
          7.7026720047 2.8539893627 3.8728206158 3.7278094292 2.7584850788 7.9573578835
          5.3508162498 13.488229752 10.539747238 21.619890213 17.081777573 15.143001556
          8.8693933487 4.0665864944 2.3470118046 3.8458108902 7.9777617455 14.876869202
          11.888134956 15.958695412 14.148041725 51.944698334 50.694992065 43.165538788
          31.435321808 23.080509186 17.964506149 15.930340767 15.274787903 14.392879486
          15.465183258 15.567855835 15.744740486 17.751922607 20.214681625 28.434318542
          36.020420074 45.713752747 52.528549194 50.480247498 40.614780426 47.379974365
          20.238601685 25.080284119 15.125090599 6.7590274811 8.428311348 4.1863164902
          4.7434897423 5.129805088 4.4316534996 8.7998323441 6.6413216591 17.374408722
          12.79447937 28.828437805 23.085363388 40.811798096 48.727600098 32.274810791
          11.872193336 5.788834095 4.9755997658 6.8042712212 11.568368912 21.758079529
          36.750171661 34.902919769 36.092147827 54.636951447 48.93038559 39.643268585
          27.694347382 20.972913742 18.814985275 16.598865509 16.360656738 15.216740608
          15.652739525 15.092795372 16.336120605 18.313627243 22.216178894 27.736341476
          35.739048004 45.215660095 52.384895325 53.973201752 40.690261841 42.93919754
          26.395305634 32.257335663 13.074382782 17.301710129 6.0445575714 8.0633363724
          3.6698338985 4.4000954628 4.0309948921 3.6070487499 8.5806035995 5.6536049843
          16.257177353 13.109984398 29.435937881 23.745042801 37.754238129 47.121498108
          27.324987411 11.314775467 6.4263658524 5.2773709297 6.7102169991 9.9570617676
          24.182214737 38.602012634 35.652011871 44.439243317 44.974536896 42.923137665
          50.070320129 46.320545197 6.6390142441 13.48936367 23.187891006 29.926330566
          38.662384033 20.019678116 16.731460571 13.834512711 9.4862670898 4.4043092728
          16.206407547 16.880062103 18.910392761 18.711420059 19.003330231 18.873018265
          15.31228447 15.319612503 16.366926193 19.046209335 11.688045502 16.926687241
          3.7334198952 9.1463108063 13.468544006 5.487010479 21.353136063 41.182395935
          30.153690338 46.630462646 45.584213257 40.090042114 40.365085602 15.871979713
          26.604003906 34.361431122 17.535299301 19.214830399 15.74544239 18.827135086
          16.425474167 21.597126007 16.437625885 14.291804314 28.071212769 22.239805222
          38.566936493 34.474014282 32.188102722 22.998544693 24.269371033 30.339759827
          33.395923615 21.995716095 25.669948578 24.839977264 24.976776123 20.599451065
          24.166971207 22.722906113 27.623561859 33.43560791 30.148035049 32.06811142
          32.627288818 25.669485092 29.990259171 28.182603836 31.554027557 29.873319626
          41.567504883 41.001819611 40.527870178 42.099601746 37.539047241 37.045627594
          37.280914307 35.021888733 35.586326599 36.117557526 35.134319305 36.624141693
          36.084285736 38.908073425 37.336868286 42.606342316 39.437198639 44.330131531
          44.174629211 28.949741364 15.446054459 21.077913284 7.7296009064 8.3808479309
          15.506001472 11.236543655 11.68227005 31.117074966 36.94008255 42.32718277
          44.493045807 43.738082886 44.919513702 42.665390015 41.393947601 35.586326599
          31.143396378 12.861297607 17.105285645 12.474989891 12.926617622 30.338403702
          20.104721069 29.781669617 30.199827194 29.525630951 23.659357071 25.601915359
          26.93097496 29.636468887 32.914909363 23.734193802 17.205276489 24.602935791
          33.083637238 33.334236145 30.973978043 24.408008575 15.44862175 10.189021111
          18.163909912 22.93743515 23.803049088 25.249563217 26.174459457 21.794338226
          24.741287231 20.479635239 22.536153793 22.063941956 21.62921524 26.035676956
          22.316890717 24.763093948 25.233787537 21.320573807 23.916635513 31.827939987
          38.906986237 45.97026825 43.049114227 37.881443024 34.051345825 33.609985352
          31.374546051 32.070381165 30.972318649 33.13501358 32.095054626 35.209503174
          39.255748749 43.060752869 45.516426086 41.116809845 37.661220551 28.538787842
          25.426120758 20.186672211 20.10153389 22.886558533 22.869428635 23.470594406
          23.775730133 22.578638077 24.312007904 25.159955978 25.500644684 25.933807373
          24.923830032 24.972345352 22.833410263 23.663690567 22.923969269 23.806430817
          23.783864975 24.053455353 32.15908432 27.901603699 22.582309723 20.986970901
          21.841844559 25.366109848 31.197347641 27.795969009 22.531923294 32.024841309
          39.533401489 45.650539398 41.766342163 38.249526978 36.299812317 35.726848602
          32.669979095 33.35647583 32.609661102 33.499610901 34.195907593 36.090648651
          37.374897003 42.925491333 47.205940247 41.393070221 37.836555481 28.691047668
          20.130884171 24.909666061 20.099571228 22.526576996 21.960241318 21.920913696
          23.213350296 21.70573616 24.285453796 23.583415985 25.1229496 24.529829025
          24.249568939 24.144906998 22.632125854 23.503679276 22.690851212 22.5253582
          23.313318253 24.304388046 30.730205536 27.274347305 22.102544785 19.906415939
          21.478736877 26.000865936 30.426612854 28.537090302 22.541156769 20.752023697
          20.497091293 20.411857605 19.710992813 18.391145706 21.511230469 18.683677673
          30.595659256 26.866678238 36.013637543 33.797180176 34.457744598 35.394309998
          27.01540947 31.172777176 18.293085098 21.967647552 19.149833679 18.596542358
          20.542612076 20.511936188 20.507902145 20.561290741 17.481328964 18.967063904
          21.525690079 18.055620193 30.606496811 26.513019562 35.157035828 34.11756134
          33.695129395 35.646656036 26.311267853 31.11413765 17.562934875 21.057638168
          19.797121048 17.448583603 16.653516769 23.070262909 31.977952957 34.914924622
          31.825113297 23.840250015 17.277593613 19.429685593 20.602069855 44.447029114
          46.106285095 40.126918793 38.857620239 38.189098358 37.201717377 37.249446869
          35.493362427 35.609981537 35.429489136 36.001598358 36.8087883 37.11555481
          38.542785645 39.127513885 39.193946838 42.833511353 41.320419312 42.535129547
          15.673756599 8.2852201462 28.374362946 20.215246201 13.569267273 11.265429497
          10.530679703 29.135147095 35.650119781 41.601726532 43.53711319 45.74369812
          43.810359955 45.044258118 40.818527222 38.260673523 30.692836761 13.704933167
          11.320397377 17.466930389 14.60700798 7.9409060478 30.852535248 12.379772186
          21.321670532 30.486082077 29.961290359 22.797864914 20.536680222 22.56344223
          27.679409027 28.702100754 29.53861618 21.669303894 17.098999023 23.881919861
          32.284927368 35.084945679 33.991313934 27.218025208 21.306898117 17.93898201
          22.93138504 25.911523819 25.07544899 25.424947739 23.495258331 24.73982811
          21.402551651 23.029756546 20.925937653 22.458772659 22.665094376 23.853321075
          24.682542801 25.459739685 23.727258682 22.551465988 25.195337296 34.012187958
          43.264499664 51.753490448 49.732002258 51.820968628 55.190567017 55.340473175
          55.959136963 55.298461914 55.021595001 53.860160828 52.42539978 51.057163239
          51.42716217 48.019828796 40.841331482 32.771034241 24.634979248 5.7456455231
          3.5972738266 17.832963943 12.382546425 8.1112184525 5.02794981 10.108906746
          33.913974762 20.892498016 41.750202179 37.499664307 43.059452057 43.077545166
          42.435131073 43.393241882 37.36794281 41.076881409 20.347806931 33.652481079
          10.338686943 12.727650642 19.279514313 12.855345726 9.0707855225 31.654924393
          35.742984772 40.707111359 37.754863739 38.624324799 39.313171387 34.463737488
          27.956855774 14.402886391 18.877281189 28.172096252 32.292526245 32.417236328
          30.851886749 28.019496918 19.219842911 22.84642601 10.622350693 16.886220932
          24.150035858 30.98122406 28.357875824 28.698833466 26.409597397 27.149562836
          25.224630356 26.834815979 26.392597198 27.086990356 28.001413345 27.704553604
          28.162622452 19.978000641 27.354852676 28.167654037 38.897418976 19.75869751
          5.710726738 13.584884644 9.0411472321 4.7601857185 14.668795586 20.325183868
          15.98138237 16.487852097 17.382764816 18.874340057 18.807991028 18.814693451
          18.549314499 15.831618309 16.234128952 4.2981982231 8.9293279648 13.551992416
          16.930892944 16.051534653 39.513027191 28.396274567 21.585557938 12.436569214
          5.4448490143 45.860954285 48.684337616 42.887317657 43.952796936 43.465061188
          44.990272522 43.340923309 42.854763031 30.943941116 39.024551392 23.662273407
          15.97914505 19.421230316 16.005331039 16.236446381 18.615768433 17.923978806
          15.65165329 16.13523674 17.390386581 20.963506699 34.966503143 24.913970947
          41.946403503 47.199237823 35.411182404 30.445091248 33.284656525 26.830606461
          22.822792053 23.614904404 25.089229584 20.450580597 23.634500504 22.639083862
          25.377937317 24.224313736 23.034408569 33.279296875 29.874668121 32.385478973
          30.48535347 24.955118179 29.038675308 29.479953766 32.267784119 29.777378082
          33.941436768 24.325277328 50.535125732 42.438564301 49.831481934 55.994823456
          52.963848114 57.218006134 56.156360626 56.13666153 57.065620422 52.263156891
          55.009799957 49.251586914 50.688285828 43.810119629 48.286045074 23.496400833
          32.784145355 17.81221962 13.027270317 3.4904198647 8.4258928299 9.0480957031
          9.2182044983 32.301204681 20.90140152 40.680301666 36.837867737 43.890727997
          43.119472504 43.075645447 43.103084564 37.563236237 40.628154755 20.511978149
          34.017356873 12.899709702 17.96346283 2.8355932236 6.3865761757 8.1276683807
          20.988462448 12.791296959 31.165872574 33.993774414 34.248142242 34.172073364
          34.439704895 35.00951767 32.565620422 27.446208954 14.581187248 16.959608078
          27.973121643 32.11214447 33.40165329 32.677482605 29.747724533 21.962768555
          10.718507767 16.676156998 25.475330353 29.335927963 27.305187225 26.65189743
          28.109325409 25.698284149 27.077087402 26.570091248 27.058286667 27.408786774
          28.573890686 28.030017853 27.928293228 20.479143143 27.886512756 19.215749741
          25.40571022 22.784513474 18.339794159 16.831613541 16.619216919 20.34428215
          18.451768875 20.22986412 18.639019012 20.246501923 20.591054916 18.362670898
          15.574140549 28.175447464 21.470529556 13.368545532 19.27743721 18.934656143
          19.237594604 19.210359573 19.085102081 19.230278015 18.578163147 19.702413559
          17.076276779 12.316313744 15.333744049 19.588323593 19.822330475 18.674890518
          17.589710236 12.798981667 49.444637299 50.557044983 48.887447357 49.330680847
          49.383831024 47.314846039 47.834609985 46.903980255 60.096775055 58.963260651
          57.755062103 52.532073975 53.497093201 51.090717316 64.153923035 62.663707733
          51.404403687 57.338542938 56.037174225 57.521312714 58.012012482 47.684101105
          47.926269531 47.618175507 49.942714691 49.018192291 48.298900604 46.772270203
          45.322319031 50.367675781 49.462486267 47.811008453 48.383769989 49.369586945
          45.167984009 46.25233078 49.24407959 48.831546783 47.761844635 46.742847443
          46.675964355 50.827285767 49.952140808 49.109607697 49.127044678 50.058898926
          46.776714325 47.866451263 49.189289093 58.707679749 42.053573608 39.778255463
          31.109991074 23.508363724 14.650177956 13.759748459 16.906936646 25.85622406
          33.265289307 40.880489349 47.252773285 56.624038696 71.386543274 72.50352478
          69.628074646 61.381568909 57.180274963 66.535560608 58.091369629 56.133468628
          55.012641907 55.67325592 55.604587555 55.28811264 55.550151825 59.901237488
          55.899093628 66.495315552 69.263801575 66.618278503 44.967411041 26.658321381
          18.558105469 32.809379578 51.248252869 59.371864319 47.003055573 37.180007935
          38.097270966 55.235523224 44.956192017 51.717773438 57.014369965 47.124641418
          36.307186127 29.867139816 26.539258957 28.497415543 30.803619385 40.122123718
          53.477336884 44.859996796 58.255905151 42.529895782 37.64043045 29.407690048
          21.135951996 15.582809448 14.978378296 18.760219574 26.945846558 31.845188141
          41.791183472 46.149925232 55.716262817 69.549751282 70.820053101 69.921890259
          67.749282837 59.039775848 57.84122467 55.290061951 55.983600616 55.753799438
          55.583244324 56.754325867 55.089550018 55.473579407 56.243831635 61.146717072
          63.362350464 72.525772095 71.16835022 65.420875549 41.694114685 22.944494247
          19.446399689 33.441669464 51.881187439 59.922351837 49.73651123 36.092308044
          34.628486633 41.545757294 54.895648956 60.00994873 51.195285797 41.113239288
          33.345737457 27.811908722 26.293516159 28.440172195 34.726657867 42.963088989
          51.700023651 33.059955597 17.574359894 15.954009056 16.895820618 19.425130844
          21.052362442 21.26442337 20.117120743 17.650484085 15.249067307 18.776737213
          24.049118042 38.097595215 44.693088531 48.365982056 46.91065979 46.72504425
          47.626110077 47.320457458 46.380313873 48.566917419 49.093296051 48.890781403
          49.338245392 47.160873413 45.286159515 43.077518463 46.641342163 50.535488129
          53.519748688 49.026885986 39.244289398 20.170227051 12.903122902 12.309593201
          15.208595276 30.576436996 39.611415863 31.327299118 24.295051575 23.770906448
          25.683395386 34.941963196 37.42943573 28.671403885 20.642770767 15.861763954
          12.70246315 12.394427299 13.372097015 17.035095215 23.887168884 29.895437241
          49.467910767 50.064640045 47.399528503 48.889514923 49.247615814 47.805236816
          46.616539001 47.244861603 58.911525726 60.267242432 55.987705231 57.520381927
          51.455818176 56.705574036 61.552154541 62.69726181 56.59122467 51.545963287
          58.800117493 55.519786835 57.753742218 47.586647034 47.292873383 47.251708984
          49.348529816 48.924316406 46.670036316 47.534645081 44.74955368 48.47744751
          48.643161774 49.491874695 47.971656799 50.636096954 45.460899353 46.413238525
          46.779331207 47.812931061 49.24237442 50.073616028 46.56703949 50.537727356
          51.140640259 49.771213531 49.101325989 48.586524963 46.970359802 47.601226807
          48.897659302 33.293243408 18.278015137 16.585716248 16.800006866 19.656253815
          20.449308395 19.928800583 18.600395203 17.028530121 14.748291016 17.160886765
          23.337099075 33.692539215 45.74458313 49.514629364 50.474147797 47.973487854
          46.226520538 46.858192444 46.846401215 45.751811981 43.304759979 48.401569366
          48.217166901 46.845241547 48.704944611 45.624187469 43.119510651 49.711799622
          46.74640274 38.077373505 17.266708374 14.768590927 11.011479378 14.678118706
          27.679153442 37.582756042 29.00822258 23.468935013 26.645803452 45.967773438
          29.229984283 32.122653961 34.576011658 24.473611832 15.143481255 13.595434189
          12.154213905 13.795585632 14.453749657 21.292507172 30.955924988 23.767885208
          13.874754906 9.6856479645 10.874503136 8.1525125504 10.551054955 10.498217583
          11.217278481 10.614285469 9.5709667206 10.969527245 9.4460687637 13.871801376
          12.517835617 13.11516571 14.701128006 9.4548931122 10.694892883 8.6307992935
          10.476256371 12.372096062 12.411805153 12.990633965 12.039290428 10.130050659
          11.349136353 14.89230442 16.617343903 9.4249658585 7.5667147636 8.1388654709
          7.6237564087 7.8308367729 9.8163347244 35.597244263 29.448600769 13.979308128
          7.9282155037 5.3622465134 5.594042778 3.612112999 2.0025520325 2.6637153625
          3.8776342869 6.3644514084 12.430891991 26.802862167 39.151103973 28.011737823
          21.069671631 23.0744133 15.862769127 11.680829048 11.863129616 6.1477303505
          3.5799121857 3.4684610367 6.4467797279 13.564465523 25.532733917 25.061668396
          32.820808411 35.686210632 38.758728027 19.926916122 8.1656274796 3.3999655247
          1.6623595953 4.5935816765 5.2647218704 8.0637969971 8.1767511368 14.233668327
          15.213025093 21.952335358 32.989536285 40.040313721 8.5960330963 3.1189587116
          2.101285696 3.7057015896 2.0820469856 1.8347082138 2.370244503 3.0368292332
          5.2129912376 7.9028506279 7.7888960838 19.419343948 44.660289764 46.738018036
          39.136383057 36.300338745 15.91410923 19.78049469 13.233204842 9.7959299088
          12.855039597 4.2783727646 9.6085758209 9.9512691498 3.0977063179 11.578821182
          11.220981598 4.6786379814 16.081336975 14.6876688 7.4207906723 26.133127213
          19.378322601 16.118041992 44.773269653 35.178104401 32.621417999 42.82535553
          43.188011169 41.451416016 41.421901703 25.496101379 17.89814949 46.500816345
          28.421812057 7.9694561958 4.1027460098 4.9030308723 9.1390647888 5.4759073257
          5.9671320915 12.437710762 7.1681780815 10.675374031 25.431249619 16.791780472
          23.967220306 41.416473389 39.521354675 36.983184814 9.8912992477 3.5112421513
          18.045036316 31.844524384 45.058601379 45.253131866 41.851390839 37.482486725
          35.557460785 16.070295334 21.274023056 11.48820591 12.728134155 14.785936356
          4.3298783302 10.939534187 11.305322647 3.0419354439 11.30700779 10.751286507
          3.1201198101 12.871456146 12.408502579 5.4517068863 23.658330917 22.904428482
          16.224063873 44.336380005 35.492855072 32.462215424 42.382740021 41.024196625
          7.0832767487 4.193315506 26.2884655 8.0640964508 4.1273818016 3.643923521
          4.2143111229 10.581415176 24.876077652 16.399934769 23.612030029 41.030361176
          43.839740753 11.48433876 5.5656576157 4.0467200279 15.005702019 22.384311676
          33.425262451 46.838684082 40.841495514 18.781642914 10.626238823 24.63535881
          22.812173843 41.814151764 32.794132233 35.33605957 22.015766144 26.484540939