<?xml version="1.0"?>
<VTKFile type="UnstructuredGrid" version="0.1" byte_order="LittleEndian" header_type="UInt32" compressor="vtkZLibDataCompressor">
  <UnstructuredGrid>
    <Piece NumberOfPoints="23315" NumberOfCells="14866">
      <PointData Scalars="Contrainte:Normale XX">
        <DataArray type="Float32" Name="Contrainte:Normale XX" format="ascii" RangeMin="-0.8942155242" RangeMax="9.7448606491">
          0.2036986202 0.2036986202 7.4368033409 0.21015508473 0.21015508473 -0.088087283075
          -0.084608487785 0.11304204166 0.21196359396 0.21196359396 0.10818807036 -0.087271250784
          -0.084172017872 0.21241179109 0.21241179109 7.3845281601 0.0064000654966 0.0064000654966
          -0.16837225854 -0.17323490977 -0.1210302487 0.011323949322 0.011323949322 6.3359088898
          0.0098719978705 0.0098719978705 5.3535923958 0.014026960358 0.014026960358 -0.16409225762
          -0.12632450461 -0.17595897615 -0.10948809981 -0.14146210253 -0.040682334453 -0.19950607419
          -0.20631726086 -0.038723845035 0.75026035309 0.67929154634 0.67729234695 0.75345468521
          -0.098623715341 -0.15501229465 -0.16812266409 -0.07843785733 -0.089129343629 -0.089818969369
          -0.14371697605 -0.051465339959 -0.41895848513 1.3441678286 5.4146590233 5.5312786102
          1.26164186 -0.47948846221 -0.42109632492 1.3272396326 5.5133929253 5.4676351547
          1.3086723089 -0.36544415355 -0.13392013311 -0.085716880858 -0.095927327871 -0.12725435197
          0.74123996496 0.72234469652 0.7302479744 0.73963797092 0.17539298534 0.17539298534
          0.13723890483 0.13723890483 0.13552175462 0.13552175462 0.16765165329 0.16765165329
          -0.13635753095 -0.13635753095 -0.074217103422 -0.074217103422 -0.12960265577 -0.12960265577
          -0.070301279426 -0.070301279426 0.3353882134 1.7953355312 1.302968502 1.0668870211
          0.53761792183 0.19078831375 0.55145013332 1.2144416571 1.398537755 1.6602538824
          0.4772914052 0.37648436427 1.7444792986 1.378934741 0.99182224274 0.55166649818
          0.1827802211 0.56687229872 0.98839014769 1.3765761852 1.7328191996 0.48522114754
          0.58525019884 0.7511729598 0.67388391495 0.72651028633 0.71728163958 0.72722238302
          0.70394682884 0.74576067924 0.6948980093 0.74281543493 0.64612001181 0.57253658772
          0.75210219622 0.71452361345 0.71173590422 0.73411166668 0.73099148273 0.72128719091
          0.71849769354 0.70861184597 0.73396545649 0.64275622368 0.54839682579 0.387160182
          1.5463562012 0.57935327291 0.80163317919 0.2237816155 0.22707808018 0.10340390354
          0.80225646496 1.5970115662 0.28216674924 1.4486916065 0.6767719388 1.1806098223
          0.070858977735 0.41451504827 0.66984289885 0.41704198718 1.1575031281 1.5453083515
          0.69393706322 0.60305356979 0.71362054348 0.6784402132 0.71314257383 0.7453379631
          0.7445345521 0.73398649693 0.72163391113 0.75339066982 0.55656838417 0.75926750898
          0.72573792934 0.67589581013 0.739120543 0.73620861769 0.73683005571 0.73387229443
          0.6920363307 0.77647566795 -0.064319968224 -0.098746880889 -0.057410236448 3.5543930531
          1.9751285315 0.82922881842 0.54967284203 0.48523455858 0.41414654255 0.37453424931
          0.33558675647 0.33617833257 0.30660626292 0.2961024642 0.27163663507 0.28596273065
          0.2897131741 0.25839975476 0.24586628377 0.2357647717 0.23941132426 0.23903742433
          0.23840557039 0.23586431146 0.223476246 0.1862834692 3.901815176 1.906039238
          0.83042687178 0.54606622458 0.43002235889 0.43758672476 0.36175611615 0.37357121706
          0.31660035253 0.33706134558 0.38542330265 0.37977257371 0.28748336434 0.27815926075
          0.28703892231 0.26591712236 0.24632178247 0.24157623947 0.22838100791 0.23721721768
          0.35393971205 0.3045078516 0.2610180676 -0.073717258871 -0.4539270401 -0.34651517868
          0.046834900975 -0.027546295896 0.13390173018 0.15048865974 0.059681788087 0.084968864918
          0.14965350926 0.13005870581 0.15038409829 0.1502224952 0.19518178701 0.19717794657
          0.20096498728 0.16164122522 0.16002894938 0.15987668931 0.15900680423 0.090614028275
          0.049290586263 0.17909651995 0.14320580661 0.13515149057 0.16833332181 0.18470443785
          0.17146334052 0.16922567785 0.16486589611 0.1880928129 0.18575546145 0.17855465412
          0.13171301782 0.1331987083 0.11445116252 0.12156307697 0.18030357361 0.14351435006
          0.083875969052 0.15473371744 0.14675150812 0.1687259376 -0.31162977219 -0.40483158827
          -0.032455984503 -0.079017430544 -0.46933543682 -0.33429014683 0.045587193221 -0.02333323285
          0.13683737814 0.16498972476 0.057489838451 0.082505777478 0.15828964114 0.16948905587
          0.1880402416 0.17362478375 0.17131839693 0.17590664327 0.14523142576 0.16244789958
          0.15423206985 0.15357898176 0.15049222112 0.17198745906 0.15141685307 0.17873892188
          0.14735195041 0.15295535326 0.12546920776 0.19609409571 0.1748713702 0.17273905873
          0.16745857894 0.18277214468 0.16703666747 0.16386316717 0.15726797283 0.1468129009
          0.12745009363 0.13297434151 0.094998270273 0.17437238991 0.070373691618 0.10385093093
          0.12618243694 0.16628096998 -0.3268558979 -0.40937721729 -0.031302299351 0.19666585326
          0.23943574727 0.23143143952 0.23633681238 0.24151313305 0.24639727175 0.25149086118
          0.25448197126 0.2612632215 0.27512991428 0.27800008655 0.29306122661 0.32199802995
          0.3481862843 0.36685276031 0.36873477697 0.4341981411 0.46363446116 0.53246635199
          0.60015267134 0.93440032005 2.0471029282 3.8450164795 0.22231113911 0.23000246286
          0.2286182642 0.21729701757 0.22717548907 0.2236315608 0.23877558112 0.24014621973
          0.24556274712 0.26164874434 0.26632738113 0.28749200702 0.35021519661 0.34533846378
          0.32189574838 0.33638179302 0.38981327415 0.50565421581 0.4216067493 0.52943390608
          0.83492910862 1.8455845118 4.1054463387 -0.063812084496 -0.47694277763 -0.42788690329
          0.18412190676 -0.022782128304 0.17510791123 0.18812035024 0.076850168407 0.091828003526
          0.09599250555 0.081102930009 0.13670805097 0.12221517414 0.1028201431 0.10539513826
          0.073788806796 0.065872915089 0.068662166595 0.058529149741 0.049608360976 0.033114761114
          0.013816299848 0.0093620512635 0.0097730318084 0.031822159886 0.027401693165 0.064769722521
          0.056401513517 0.062081828713 0.066114753485 0.080703109503 0.08790999651 0.10058619082
          0.13409018517 0.13565054536 0.098107367754 0.11770014465 0.10503017902 0.21570420265
          0.19112637639 0.18744331598 -0.025201957673 0.29846292734 -0.42876791954 -0.42360791564
          -0.024270033464 3.5854542255 2.4694626331 1.3665543795 0.79898285866 0.64457029104
          0.64793634415 0.4837577641 0.36016497016 0.29843869805 0.26981785893 0.24592663348
          0.25781363249 0.19235418737 0.15752896667 0.1273816973 0.1116303131 0.099279403687
          0.088647581637 0.079664446414 0.067172713578 0.062199443579 0.048903826624 0.022625252604
          0.036235447973 0.066850669682 0.076665341854 0.078897051513 0.094813190401 0.110640347
          0.10216026008 0.11248081923 0.12803241611 0.1572393328 0.19005461037 0.20920188725
          0.22502431273 0.26218751073 0.30332636833 0.37468016148 0.41898065805 0.5328540802
          0.56121248007 0.8674800992 1.2422250509 2.4612803459 4.0420966148 3.3321914673
          2.4856085777 1.3637940884 0.79189574718 0.62423765659 0.47379374504 0.42876255512
          0.36724808812 0.31948408484 0.33339899778 0.29216641188 0.21151155233 0.18683515489
          0.15575414896 0.12750658393 0.10556351393 0.098764739931 0.091181829572 0.080743476748
          0.068711400032 0.059873510152 0.046754017472 0.02215279825 0.032559540123 0.052978601307
          0.060424767435 0.066358529031 0.079458780587 0.088158898056 0.10604777932 0.11494942755
          0.13319215178 0.15678815544 0.18752241135 0.2174538821 0.30365422368 0.27258646488
          0.30608841777 0.35091999173 0.41678857803 0.55824440718 0.6084677577 0.80252885818
          1.2767246962 2.4760937691 3.8373425007 -0.069814436138 -0.46207538247 -0.11063931882
          0.1451946497 0.16382484138 0.23084890842 0.24603661895 0.085736043751 0.10228032619
          0.096238479018 0.14727377892 0.14701069891 0.12478419393 0.10958863795 0.09776353091
          0.075638368726 0.07434977591 0.063176929951 0.05590903759 0.047964595258 0.049231495708
          0.029599832371 0.020101455972 0.0068093412556 0.023679520935 0.041038770229 0.060759454966
          0.056122429669 0.061710972339 0.065609760582 0.079729154706 0.082320317626 0.093996576965
          0.10313410312 0.11737575382 0.10199554265 0.12633608282 0.15613308549 0.17911450565
          0.11717071384 0.15702672303 0.16820721328 0.3056961894 0.20045864582 -0.44162529707
          -0.027194445953 0.64112126827 0.60808122158 -0.17321714759 -0.69282990694 -0.8942155242
          -0.67187988758 -0.11587195098 0.43329566717 1.1209667921 0.13898558915 0.13898558915
          0.17154301703 0.17154301703 -0.049953773618 -0.11693991721 -0.15027906001 1.7127948999
          0.78302747011 -0.12749138474 -0.66925662756 -0.88979494572 -0.6889359951 -0.16545763612
          0.32047790289 1.1153136492 -0.12721170485 -0.12721170485 -0.069863691926 -0.069863691926
          -0.045592233539 -0.11276554316 -0.084872290492 -0.13476265967 -0.11896908283 -0.059734437615
          -0.12501589954 -0.12501589954 -0.072232730687 -0.072232730687 0.14566725492 0.14566725492
          0.18097637594 0.18097637594 -0.28618958592 -0.014474744909 -0.22611750662 -0.14337900281
          -0.030205165967 -0.11548916996 -0.11820628494 -0.041260164231 -0.030485415831 -0.14133666456
          -0.12052194774 -0.03401684761 -0.11474911869 -0.3374709785 -0.083289407194 -0.20756106079
          0.0081766992807 -0.21724025905 -0.079345054924 -0.14230930805 -0.027663744986 -0.29403728247
          -0.10803777725 -0.3177126348 -0.35421720147 -0.13251842558 -0.30417966843 -0.21766833961
          0.0071284705773 -0.1457888484 -0.027126809582 -0.084694027901 0.54951018095 0.64296150208
          0.24925383925 -0.4176722765 -0.063849158585 -0.81085753441 -0.60262542963 -0.79941904545
          -0.80475944281 -0.3831551373 -0.58087950945 0.30547937751 -0.017152508721 0.6899074316
          1.0797045231 0.16867031157 0.1320373714 0.2142008543 0.24808232486 0.29910361767
          0.3691482842 0.51476657391 1.1111043692 0.76293849945 2.3595016003 1.506067276
          1.4093329906 0.038577213883 -0.090613208711 -0.15792036057 -0.066369175911 -0.097351334989
          -0.23385700583 -0.24110788107 0.11339809746 1.1109821796 3.0337474346 4.6492762566
          5.6987905502 5.3335280418 4.3451237679 3.0082769394 1.0159474611 0.052301891148
          -0.28083217144 -0.26832640171 -0.15460634232 -0.08240070194 -0.11417613178 -0.13583812118
          -0.10085146874 -0.04742885381 0.01290581841 0.035172179341 0.10896775872 0.18873687088
          0.33126565814 0.51451212168 0.82125514746 1.2002888918 1.4790067673 1.7799950838
          1.8561723232 0.3638676405 0.95754289627 -0.24654054642 0.19930188358 -0.63875037432
          -0.34317457676 -0.63051378727 -0.54970622063 -0.22635820508 -0.32629919052 0.44109511375
          0.21129919589 0.96155917645 0.17769268155 0.1348939985 0.097340896726 0.21716156602
          0.28230589628 0.48566445708 0.3319657743 1.0003377199 0.63974761963 1.3289899826
          1.4543526173 1.3145344257 0.046346288174 -0.012260781601 -0.1277294755 -0.18530675769
          -0.038191869855 -0.049002137035 0.51700282097 1.6649765968 2.4890367985 3.5496199131
          4.2939567566 4.2241363525 4.8181262016 3.9814879894 3.8467011452 3.3364057541
          2.4136180878 1.691170454 0.65182560682 0.010972388089 -0.25880911946 -0.17222808301
          -0.13887500763 -0.07928186655 -0.056444734335 -0.046932760626 0.012757913209 0.093330442905
          0.1966675818 0.34406524897 0.5372530818 0.62228685617 0.71886247396 1.0653563738
          1.4133040905 1.5417779684 1.4439455271 0.55627048016 0.9504519701 0.083386413753
          0.73877501488 -0.33119937778 0.10857844353 -0.31291520596 0.0034240963869 0.090594284236
          0.15315790474 0.61293596029 0.7567461133 1.0031813383 0.14430132508 0.10505590588
          0.22481454909 0.1731198132 0.40542933345 0.24627134204 1.3110049963 0.91359806061
          0.55808842182 0.32600945234 1.277670145 1.6253670454 1.6368546486 0.073644399643
          0.010027071461 -0.061744652689 -0.033814754337 0.10762918741 0.018714845181 0.008743846789
          0.31931227446 1.124922514 1.706086874 2.0565807819 2.5683004856 3.1158585548
          2.6378159523 3.3837394714 2.6006398201 2.9721293449 2.4830868244 2.0592341423
          1.5718575716 1.1638747454 0.53831201792 0.0191975981 -0.13441069424 -0.12767140567
          -0.067060485482 -0.042440067977 0.0077832825482 0.01450878568 0.09733299166 0.21403925121
          0.35395628214 0.32775008678 1.6127272844 1.6937363148 1.3181468248 0.72205090523
          1.4334292412 1.6239013672 0.70170027018 0.91547501087 1.669043541 1.5271999836
          0.11646205932 0.13555799425 0.1257019937 0.068174667656 1.9405897856 1.4374343157
          1.9366800785 1.5049579144 1.9804314375 0.032474990934 0.023594649509 0.15924988687
          3.059273243 0.82420819998 0.2657263279 -0.38116300106 -0.019705867395 -0.79694491625
          -0.57980668545 -0.80519962311 -0.79934704304 -0.41323590279 -0.59469348192 0.23929990828
          -0.057810887694 0.69242370129 2.9491384029 1.5078663826 2.4142887592 1.5656151772
          1.252969265 0.9114561677 0.61141252518 0.41364604235 0.26871347427 0.15819016099
          0.0785388574 0.0048321285285 -0.058667968959 -0.13468949497 -0.10527789593 -0.071247659624
          -0.15544101596 -0.13861332834 -0.29459154606 -0.34083005786 0.0479670614 0.97996795177
          2.8843123913 4.5920209885 5.3230690956 5.6942343712 4.6364040375 3.2320320606
          1.2998793125 0.11078670621 -0.20235364139 -0.22552919388 -0.16269665956 -0.11148037016
          -0.095049418509 -0.017202422023 0.17732796073 0.11314990371 0.022401513532 2.1146500111
          1.5705473423 0.9990068078 1.3178751469 0.62956166267 0.45191264153 0.34171462059
          0.26949310303 0.23913447559 0.20610849559 0.4646936655 0.96940582991 -0.211880669
          0.24195471406 -0.62662512064 -0.32268092036 -0.63557058573 -0.54337209463 -0.24477888644
          -0.34383013844 0.38135746121 0.17634497583 0.91753381491 1.3103187084 1.5188190937
          1.405585885 1.0679237843 0.74799370766 0.59991937876 0.33847054839 0.26740071177
          0.14850525558 0.068592295051 0.0097064105794 -0.053727045655 -0.11152136326 -0.12822797894
          -0.08080778271 -0.1660566926 -0.24924811721 -0.10337457061 0.48271483183 1.6315875053
          2.4314460754 3.1904976368 3.8409461975 3.9503641129 4.7935810089 4.2566056252
          4.1293253899 3.5826590061 2.500834465 1.8642009497 0.76697278023 0.10483403504
          -0.19109162688 -0.092098593712 -0.058696385473 0.14975228906 0.061878588051 0.11255957186
          0.0083284527063 1.3011004925 0.56746011972 0.65092349052 0.99155831337 1.3229321241
          1.495554924 0.46922659874 0.34259846807 0.25971606374 0.2049831748 0.17196215689
          0.62035810947 1.0074765682 0.11114861816 0.75156790018 -0.31785479188 0.11791118234
          -0.30697351694 0.0024039277341 0.099660813808 0.14946037531 0.58000087738 0.76162981987
          0.99507331848 1.3075431585 1.6227338314 1.6175798178 1.3594863415 0.90398651361
          0.55216580629 0.32529568672 0.4396122992 0.19869743288 0.17394414544 0.084562964737
          0.033840220422 -0.021693097427 -0.096127852798 -0.085149742663 -0.16920433939 -0.052884336561
          -0.11606255919 -0.010135535151 0.29171004891 1.1387723684 1.6426935196 2.0208849907
          2.4616835117 2.8850800991 2.5421943665 3.3389172554 2.7165749073 3.1275889874
          2.6494588852 2.0443828106 1.6032011509 1.1339236498 0.53709936142 0.089872598648
          -0.054947998375 -0.047944515944 0.071388952434 0.13999243081 0.037952288985 1.3244812489
          0.35423231125 0.34237712622 1.5885643959 1.6774568558 0.26777175069 0.17980267107
          0.71315890551 1.4041249752 1.6157324314 0.70138698816 0.92916476727 1.691146493
          1.5582442284 0.037036228925 0.034224342555 0.0099356966093 -0.046873837709 -0.079324103892
          1.8694165945 1.4153888226 1.9285285473 1.5426955223 2.0852608681 0.12367130071
          0.023389276117 0.10520780087 0.10532227904 0.21721203625 -0.017159488052 -0.081388056278
          -0.18918256462 0.57206296921 0.77001345158 0.52313810587 0.67341256142 0.40780332685
          0.2759667635 0.18025146425 0.088369168341 0.0026227026246 -0.13130693138 -0.082897163928
          -0.032822862267 -0.13063699007 -0.068260371685 -0.028936160728 0.034001421183 0.089774407446
          0.15684999526 0.24786376953 0.35828012228 0.46781075001 0.62018597126 0.74255669117
          0.62182962894 -0.3290463984 -0.23126401007 0.093513734639 0.55567628145 1.2687525749
          0.73772984743 1.019208312 0.55952185392 0.018795214593 0.25113096833 0.067554399371
          0.025563569739 0.62089782953 0.29925346375 0.85822576284 1.2583448887 1.0605021715
          0.43527749181 0.82387930155 0.47259253263 0.61377453804 0.32236483693 0.075595118105
          0.2066642642 0.073867306113 0.023133136332 0.0026521657128 0.084956437349 -0.049918975681
          -0.027272854 0.025641759858 0.0160048455 0.01411963813 0.10717774928 0.20304423571
          0.31382322311 0.48102393746 0.59286916256 0.72669506073 0.45073363185 0.47488602996
          0.20358225703 0.47688496113 0.2471780777 0.58699280024 0.37250220776 0.21701660752
          0.12271592021 0.098135910928 0.035536985844 0.067944273353 0.10314271599 0.21535360813
          0.35222822428 0.2981184423 0.15630838275 0.36420956254 0.21314284205 2.6408154964
          0.77929836512 0.31398367882 -0.02854658477 -0.38136023283 -0.57034093142 -0.79567497969
          -0.7932241559 -0.80631381273 -0.59632521868 -0.42385521531 -0.050962973386 0.22396074235
          0.62360483408 3.07975173 2.2705321312 2.2953002453 1.4849750996 1.0388478041
          0.69828683138 0.50571668148 0.37136563659 0.29886618257 0.2381965816 0.21138252318
          0.1726064682 0.13221655786 -0.033761486411 0.052120622247 -0.093228451908 -0.085301414132
          -0.10322459787 -0.12951345742 -0.11340972036 0.06828930974 -0.2673586905 -0.30593165755
          2.9197535515 1.0150769949 5.6375317574 5.3535432816 4.3533172607 2.9421241283
          4.9006404877 0.11488509178 1.1071392298 -0.23705336452 -0.27120101452 -0.13636264205
          -0.11844317615 -0.10145301372 -0.046460006386 0.023412736133 0.099405266345 0.18867786229
          0.32356825471 0.52792662382 0.8834990263 1.1091451645 1.4516553879 1.8367068768
          1.6467876434 0.90933907032 0.45798075199 0.23245090246 -0.2122143507 -0.31438595057
          -0.63380140066 -0.53236079216 -0.64554196596 -0.33545780182 -0.25445339084 0.19500465691
          0.37629330158 0.94243401289 1.3792712688 1.4843869209 1.311935544 0.965690732
          0.61881810427 0.48780804873 0.32453027368 0.28041192889 0.21490766108 0.17593792081
          0.15018093586 0.098289437592 -0.0092479269952 -0.065610416234 0.047363642603 -0.14591860771
          -0.15049311519 -0.16573728621 0.67153704166 -0.014337322675 -0.27083349228 3.350353241
          2.4196126461 1.7944033146 4.2420287132 4.130171299 4.8204483986 3.9164505005
          3.7879214287 1.628710866 2.4788661003 3.5631296635 -0.031120629981 0.52629250288
          -0.13452488184 -0.073818273842 -0.048826452345 -0.043401744217 0.012062708847 0.090719617903
          0.19387961924 0.35548213124 0.53601390123 0.63957452774 0.71315819025 1.0568624735
          1.3795641661 1.5514651537 1.3262455463 1.0061626434 0.60799193382 0.78844213486
          0.10404846072 0.13214124739 -0.32966226339 -0.0014133114601 -0.31998562813 0.14775043726
          0.070016220212 0.74123573303 0.56850856543 0.96883279085 1.2716110945 1.6179025173
          1.5947238207 1.3203781843 0.89445358515 0.53008818626 0.3203676641 0.39656108618
          0.2302454412 0.21576879919 0.16233822703 0.1364787519 0.10426030308 0.0044574304484
          0.0057189939544 -0.08493258059 0.05852073431 -0.035632561892 0.070031248033 -0.15649911761
          -0.12145607919 1.5920798779 1.1867861748 0.52534860373 0.00406191824 2.5165777206
          2.0165827274 2.6026790142 3.1222553253 2.70485425 3.3222835064 2.5458943844
          2.9150185585 1.1515543461 1.6955324411 2.0361704826 0.29716214538 -0.058255717158
          -0.00012672798766 0.0080409478396 0.095654405653 0.22301845253 0.35799130797 0.333773911
          1.6138284206 1.6709941626 1.3910429478 1.6532492638 1.4611284733 0.72628122568
          0.67754667997 0.94259911776 1.5251431465 1.641548872 0.089870296419 0.110461317
          0.10263159126 0.048369973898 0.0017983898288 0.042668350041 -0.066455744207 1.8828547001
          2.0372202396 1.5277246237 1.9465095997 1.4090281725 0.036148328334 0.16760283709
          3.7062344551 0.80826634169 0.25477162004 -0.068931482732 -0.41579344869 -0.59348112345
          -0.8091429472 -0.79830563068 -0.80102711916 -0.57986366749 -0.39342498779 -0.0090558351949
          0.281609267 0.58067786694 1.3894969225 1.2349672318 2.3274197578 1.6063667536
          1.2536625862 0.88110995293 0.63367313147 0.41974580288 0.26996842027 0.15546841919
          0.078898385167 0.0051908628084 -0.05897616595 -0.14053405821 -0.10920417309 -0.11491747946
          -0.079007901251 -0.18177314103 -0.14365489781 -0.11535262316 0.12992537022 -0.19181537628
          -0.30935114622 3.0539126396 1.066327095 5.7859859467 5.3487997055 4.4276428223
          2.9785840511 4.8931465149 0.069904275239 1.0361162424 -0.29836109281 -0.36771124601
          -0.017629949376 -0.086056493223 0.018296293914 0.12518675625 0.16944760084 0.20811928809
          0.24724799395 0.322786659 0.45804569125 0.65895020962 0.95060050488 1.4402102232
          2.4319756031 1.8305615187 0.84200525284 0.40465450287 0.19088247418 -0.24384516478
          -0.33505228162 -0.64670610428 -0.53882414103 -0.63974112272 -0.32002392411 -0.22824712098
          0.23242133856 0.45088720322 0.94690477848 1.4035118818 1.5162706375 1.3969707489
          1.0626428127 0.70662903786 0.57134985924 0.32922643423 0.26117432117 0.14615951478
          0.065352492034 0.0078213466331 -0.059019215405 -0.11744178832 -0.13345834613 -0.084356881678
          -0.16519382596 -0.21674337983 -0.11250469834 0.72394657135 0.086465142667 -0.18843314052
          3.3855109215 2.4107909203 1.7920796871 4.2726569176 4.2713084221 4.8139696121
          3.9760355949 3.7892906666 1.6939198971 2.3450400829 3.4880175591 -0.10517936945
          0.48606419563 -0.06069001928 0.038884621114 0.075359329581 0.095009982586 0.13819380105
          0.17967446148 0.23973810673 0.33807346225 0.45705235004 0.55873185396 0.67986410856
          1.0433706045 1.3470469713 1.4981641769 1.3278110027 0.96344161034 0.57159650326
          0.77002173662 0.079897120595 0.1292425245 -0.33255213499 -0.0025503337383 -0.321313411
          0.1602435261 0.086354956031 0.76336097717 0.62626320124 1.0240952969 1.3136227131
          1.6578657627 1.6681008339 1.37657094 0.91539031267 0.54872387648 0.29967141151
          0.4180175662 0.18837442994 0.16191117465 0.076781257987 0.027743546292 -0.030640758574
          -0.10053575784 -0.093641445041 -0.15853394568 -0.060231566429 -0.12421263754 -0.0032039524522
          -0.049537848681 -0.029340367764 1.5747205019 1.0764070749 0.50803142786 0.065000116825
          2.520190239 1.9887279272 2.5943572521 3.1652166843 2.6815857887 3.3973023891
          2.5180072784 2.9068050385 1.1667199135 1.681039691 2.0433142185 0.26607823372
          0.039642728865 0.095295645297 0.11296305805 0.16448885202 0.25131386518 0.35774564743
          0.34804198146 1.5168561935 1.64488554 1.3231036663 1.6445575953 1.459800601
          0.7285490036 0.67872565985 0.94774729013 1.5277913809 1.6579461098 0.0082015590742
          0.018647100776 6.8415807618e-05 -0.05957788229 -0.09220315516 0.081406399608 0.023074222729
          1.9114685059 2.0427155495 1.5518832207 1.9296095371 1.4073549509 0.1095944345
          0.22077175975 0.061404533684 0.57706534863 1.2331962585 1.0032647848 0.68529289961
          0.54480731487 0.25546813011 0.022162463516 0.02850817889 0.076252013445 0.27724790573
          0.55494511127 0.87176883221 1.0361509323 1.2234902382 0.45208597183 -0.023636307567
          -0.08619107306 -0.19543749094 0.51435178518 0.70796066523 0.69896358252 0.55082863569
          0.4213296473 0.28124305606 0.18915303051 0.094234548509 0.0075985589065 -0.1276499331
          -0.12689979374 -0.030197091401 -0.07792892307 -0.06902128458 -0.029595769942 0.032752435654
          0.092842191458 0.16254886985 0.25294649601 0.36973997951 0.48221582174 0.60826891661
          0.77675330639 0.63706487417 -0.30436429381 -0.23354999721 0.7310975194 0.49559608102
          0.4451559186 0.20599292219 0.0704594329 0.024548592046 0.085896708071 0.23739477992
          0.44378006458 0.5731754899 0.82005274296 0.62575525045 0.48112845421 0.32960319519
          0.21065996587 0.084060080349 -0.017038010061 -0.042793519795 0.086981698871 0.0064451703802
          0.028278958052 0.017509208992 0.017158344388 0.11311835796 0.21223862469 0.32264852524
          0.50287467241 0.60973232985 0.36588916183 0.31791448593 0.16505266726 0.043623011559
          0.12222219259 0.20926967263 0.36524915695 0.37499946356 0.2274364084 0.10492090136
          0.1110214144 0.22480234504 0.37874287367 -0.015637081116 -0.14593863487 0.47001934052
          0.43419310451 0.39539468288 0.3776088357 0.35495871305 0.2942327261 0.30223959684
          0.26039847732 0.2365539968 0.41338384151 0.34635022283 0.29097980261 0.39072430134
          0.27796527743 0.2295615226 0.24345268309 0.26112625003 0.28621608019 0.30522882938
          0.32842978835 0.3407163918 0.40973803401 0.49338763952 0.47790917754 -0.24277444184
          -0.20715856552 0.39253160357 0.59345757961 0.66049343348 0.65793043375 0.6704685092
          0.67714309692 0.64818155766 0.62644481659 0.63223224878 0.64021706581 0.65298992395
          0.6834794879 0.68080759048 0.66080629826 0.69878488779 0.53386819363 0.56736266613
          0.47108095884 0.44668954611 0.37278458476 0.36714586616 0.30104264617 0.5365704298
          0.42768406868 0.35451561213 0.35788112879 0.37339276075 0.45078709722 0.55925178528
          0.33384388685 0.28451725841 0.3285908401 0.34131249785 0.38206243515 0.43664360046
          0.45659044385 0.55461829901 0.53092503548 0.59943675995 0.56052052975 0.5806774497
          0.6218701601 0.57671844959 0.46486783028 0.43980684876 0.48676332831 0.40764686465
          0.43428936601 0.51358968019 0.38528040051 0.41123789549 0.4525320828 0.51329278946
          0.4705953598 0.50577503443 0.5428019762 0.39903125167 -0.19785702229 0.57679057121
          0.7077473402 0.6629294157 0.63376063108 0.69165229797 0.62434059381 0.66046178341
          0.63325130939 0.62362736464 0.69313752651 0.66844123602 0.67935246229 0.67620271444
          0.64534085989 0.52360087633 0.3845358789 -0.014614081942 -0.15133109689 0.39823266864
          0.41288876534 0.3936919868 0.46052670479 0.36109992862 0.30615022779 0.30950894952
          0.26608970761 0.24644555151 0.29804417491 0.40991595387 0.39067780972 0.34673079848
          0.29482039809 0.23446203768 0.25445470214 0.26862344146 0.28901296854 0.30568388104
          0.34791004658 0.34349542856 0.40901505947 0.47429969907 0.4708417058 -0.28408327699
          0.602619946 0.5195145607 0.57094079256 0.56585872173 0.53135716915 0.56711912155
          0.62836295366 0.59043341875 0.56693601608 0.57470810413 0.4597851634 0.48444399238
          0.38509500027 0.30857259035 0.37955111265 0.38382601738 0.37055435777 0.45681324601
          0.40144094825 0.29145255685 0.34933435917 0.33648347855 0.34637975693 0.37954568863
          0.451207757 0.45289081335 0.51668733358 0.46420800686 0.48531937599 0.47213920951
          0.52377539873 0.54442894459 0.5113388896 0.47619467974 0.45464643836 0.44486370683
          0.41951704025 0.39607921243 0.42124974728 0.16196629405 -0.44711309671 -0.83334881067
          -0.82999813557 -0.41914877295 0.22757218778 0.22232766449 -0.41020610929 -0.81962829828
          -0.83541202545 -0.44998061657 0.16228657961 0.3303873837 0.34183338284 0.36806213856
          0.38770735264 0.33721259236 0.40576854348 0.44588944316 0.44535434246 0.39094430208
          0.52918976545 0.41115987301 -0.062947049737 0.42681983113 -0.0027130243834 0.45943579078
          0.24899050593 0.462374717 2.1073801517 2.4180305004 0.80684441328 0.42433860898
          2.0220952034 2.3934419155 0.86414140463 0.36871519685 2.1227140427 2.4703223705
          0.74878233671 0.34265232086 2.0790622234 2.4281651974 0.82961094379 0.30608287454
          2.411334753 2.0003578663 0.79998236895 0.31964728236 0.10202141106 0.22748979926
          0.78715610504 1.9592498541 2.315340519 0.22424015403 0.24489030242 0.21356855333
          0.24240268767 0.25677374005 0.26168304682 0.27892276645 0.28995504975 0.31885141134
          0.32697868347 0.34216678143 0.34623408318 0.33306261897 0.35194355249 0.365668118
          0.35970169306 0.37068396807 0.43310761452 0.42571502924 0.43034657836 0.45442694426
          0.58130598068 0.50702899694 0.96966904402 1.6035660505 0.15786422789 0.19339492917
          0.23938891292 -0.16079553962 -0.093160934746 0.0149012357 0.093240909278 0.15593670309
          0.1901139468 0.19674897194 0.23599870503 0.27865153551 0.32680281997 0.34833663702