# vtk DataFile Version 4.1
vtk output
ASCII
DATASET UNSTRUCTURED_GRID
POINTS 228 float
8000 1000 0 8000 1000 1000 8000 0 0 
8000 0 1000 0 1000 0 0 1000 1000 
0 0 0 0 0 1000 728 1000 1000 
1456 1000 1000 2184 1000 1000 2912 1000 1000 
3640 1000 1000 4368 1000 1000 5096 1000 1000 
5824 1000 1000 6552 1000 1000 7280 1000 1000 
728 0 1000 1456 0 1000 2184 0 1000 
2912 0 1000 3640 0 1000 4368 0 1000 
5096 0 1000 5824 0 1000 6552 0 1000 
7280 0 1000 728 1000 0 1456 1000 0 
2184 1000 0 2912 1000 0 3640 1000 0 
4368 1000 0 5096 1000 0 5824 1000 0 
6552 1000 0 7280 1000 0 728 0 0 
1456 0 0 2184 0 0 2912 0 0 
3640 0 0 4368 0 0 5096 0 0 
5824 0 0 6552 0 0 7280 0 0 
8000 500 500 0 500 500 4732 500 500 
0 500 1000 364 1000 1000 1092 1000 1000 
1820 1000 1000 2548 1000 1000 3276 1000 1000 
4004 1000 1000 4732 1000 1000 5460 1000 1000 
6188 1000 1000 6916 1000 1000 7640 1000 1000 
8000 500 1000 364 0 1000 1092 0 1000 
1820 0 1000 2548 0 1000 3276 0 1000 
4004 0 1000 4732 0 1000 5460 0 1000 
6188 0 1000 6916 0 1000 7640 0 1000 
0 500 0 364 1000 0 1092 1000 0 
1820 1000 0 2548 1000 0 3276 1000 0 
4004 1000 0 4732 1000 0 5460 1000 0 
6188 1000 0 6916 1000 0 7640 1000 0 
8000 500 0 364 0 0 1092 0 0 
1820 0 0 2548 0 0 3276 0 0 
4004 0 0 4732 0 0 5460 0 0 
6188 0 0 6916 0 0 7640 0 0 
8000 1000 500 0 1000 500 8000 0 500 
0 0 500 364 500 1000 728 500 1000 
1092 500 1000 1456 500 1000 1820 500 1000 
2184 500 1000 2548 500 1000 3276 500 1000 
3640 500 1000 4004 500 1000 4368 500 1000 
4732 500 1000 5096 500 1000 5460 500 1000 
5824 500 1000 6188 500 1000 6552 500 1000 
6916 500 1000 7640 500 1000 2912 500 1000 
7280 500 1000 364 500 0 1092 500 0 
728 500 0 1820 500 0 1456 500 0 
2548 500 0 2184 500 0 3640 500 0 
3276 500 0 4004 500 0 5096 500 0 
4732 500 0 5460 500 0 6188 500 0 
5824 500 0 6916 500 0 6552 500 0 
7640 500 0 2912 500 0 4368 500 0 
7280 500 0 364 1000 500 728 1000 500 
1092 1000 500 1456 1000 500 1820 1000 500 
2184 1000 500 2548 1000 500 3276 1000 500 
3640 1000 500 4004 1000 500 4368 1000 500 
4732 1000 500 5096 1000 500 5460 1000 500 
5824 1000 500 6188 1000 500 6552 1000 500 
6916 1000 500 7640 1000 500 2912 1000 500 
7280 1000 500 364 0 500 1092 0 500 
728 0 500 1820 0 500 1456 0 500 
2548 0 500 2184 0 500 3640 0 500 
3276 0 500 4004 0 500 5096 0 500 
4732 0 500 5460 0 500 6188 0 500 
5824 0 500 6916 0 500 6552 0 500 
7640 0 500 2912 0 500 4368 0 500 
7280 0 500 8000 250 250 8000 250 750 
8000 750 750 8000 750 250 0 250 750 
0 250 250 0 750 250 0 750 750 
1456 500 500 6552 500 500 6916 500 500 
2184 500 500 2548 500 500 2912 500 500 
1820 500 500 7640 750 250 7640 750 750 
7280 500 500 7640 250 250 5460 500 500 
5096 500 500 6188 500 500 5824 500 500 
364 750 250 364 750 750 364 250 250 
1092 500 500 728 500 500 364 250 750 
4550 250 250 4550 750 250 4550 750 750 
4368 500 500 4550 250 750 4914 250 750 
4914 750 750 3276 500 500 3640 500 500 
4004 500 500 4914 750 250 4914 250 250 

CELLS 79 869
10 39 18 9 19 167 105 195 170 65 106 
10 9 30 29 39 149 78 148 195 127 128 
10 37 16 17 46 162 61 165 139 196 197 
10 31 40 10 11 129 198 151 164 199 55 
10 11 31 40 41 164 129 199 200 142 91 
10 41 20 11 21 171 109 200 184 67 122 
10 9 30 39 10 149 127 195 54 150 201 
10 10 11 40 20 55 199 198 108 109 172 
10 19 40 10 39 169 198 107 170 90 201 
10 19 40 20 10 169 172 66 107 198 108 
10 31 10 40 30 151 198 129 79 150 130 
10 10 9 19 39 54 106 107 201 195 170 
10 37 16 46 36 162 196 139 85 161 140 
10 37 17 48 47 165 203 202 144 204 205 
10 45 14 44 35 206 207 95 138 158 136 
10 46 15 45 36 208 209 96 140 160 137 
10 17 3 1 48 121 63 62 203 188 189 
10 17 16 26 46 61 119 120 197 196 182 
10 37 17 47 46 165 204 144 139 197 97 
10 11 22 41 21 110 174 200 122 68 184 
10 25 46 26 16 179 182 72 118 196 119 
10 49 28 8 5 210 146 211 194 145 52 
10 26 47 17 46 181 204 120 182 97 197 
10 7 6 38 49 102 88 166 191 192 212 
10 39 8 38 29 213 214 89 128 147 125 
10 41 20 40 11 171 172 91 200 109 199 
10 49 8 28 38 211 146 210 212 214 126 
10 28 6 49 38 124 192 210 126 88 212 
10 30 10 40 39 150 198 130 127 201 90 
10 46 15 36 16 208 160 140 196 60 161 
10 39 8 29 9 213 147 128 195 53 148 
10 1 37 48 0 163 202 189 99 86 190 
10 1 37 17 48 163 165 62 189 202 203 
10 47 48 37 2 205 202 144 98 187 141 
10 37 48 0 2 202 190 86 141 187 87 
10 48 3 2 47 188 101 187 205 183 98 
10 27 47 3 17 186 183 74 123 204 121 
10 48 17 3 47 203 121 188 205 204 183 
10 6 49 4 28 192 193 75 124 210 76 
10 49 5 4 28 194 100 193 210 145 76 
10 49 8 18 5 211 104 215 194 52 103 
10 49 18 8 38 215 104 211 212 168 214 
10 49 18 7 5 215 64 191 194 103 51 
10 39 8 9 18 213 53 195 167 104 105 
10 50 43 33 13 216 143 217 218 219 155 
10 50 23 43 13 220 185 216 218 113 219 
10 24 14 23 50 115 114 70 221 222 220 
10 42 11 31 12 223 164 132 224 56 152 
10 42 11 22 41 223 110 173 92 200 174 
10 42 11 12 22 223 56 224 173 110 111 
10 42 11 41 31 223 200 92 132 164 142 
10 33 12 13 43 154 57 155 143 225 219 
10 13 23 14 50 113 114 58 218 220 222 
10 22 23 13 43 69 113 112 175 185 219 
10 32 31 12 42 80 152 153 131 132 224 
10 33 32 12 42 81 153 154 133 131 224 
10 34 13 14 50 156 58 157 226 218 222 
10 24 44 14 50 176 207 115 221 227 222 
10 43 42 12 22 93 224 225 175 173 111 
10 34 33 13 50 82 155 156 226 217 218 
10 45 14 35 15 206 158 138 209 59 159 
10 35 34 14 44 83 157 158 136 134 207 
10 36 35 15 45 84 159 160 137 138 209 
10 24 25 15 45 71 117 116 178 180 209 
10 46 15 16 25 208 60 196 179 117 118 
10 46 15 25 45 208 117 179 96 209 180 
10 26 27 17 47 73 123 120 181 186 204 
10 34 33 50 44 82 217 226 134 135 227 
10 12 13 43 22 57 219 225 111 112 175 
10 43 24 23 50 177 70 185 216 221 220 
10 43 44 24 50 94 176 177 216 227 221 
10 45 14 15 24 206 59 209 178 115 116 
10 45 14 24 44 206 115 178 95 207 176 
10 49 7 18 38 191 64 215 212 166 168 
10 34 50 14 44 226 222 157 134 227 207 
10 33 43 42 12 143 93 133 154 225 224 
10 50 43 44 33 216 94 227 217 143 135 
10 8 28 38 29 146 126 214 147 77 125 
10 39 8 18 38 213 104 167 89 214 168 

CELL_TYPES 79
24
24
24
24
24
24
24
24
24
24
24
24
24
24
24
24
24
24
24
24
24
24
24
24
24
24
24
24
24
24
24
24
24
24
24
24
24
24
24
24
24
24
24
24
24
24
24
24
24
24
24
24
24
24
24
24
24
24
24
24
24
24
24
24
24
24
24
24
24
24
24
24
24
24
24
24
24
24
24

POINT_DATA 228
FIELD FieldData 19
Displacement 3 228 double
-0.00812414 3.31274e-05 -0.0869141 0.00810954 1.94004e-05 -0.0869144 -0.00811693 1.56184e-05 -0.0869089 
0.008129 3.38889e-05 -0.0869237 0 0 0 0 0 0 
0 0 0 0 0 0 0.00131564 -0.000266359 -0.00102869 
0.00259143 -0.000253448 -0.00397155 0.00375657 -0.000224973 -0.00871178 0.00479015 -0.000193344 -0.0150379 
0.00565783 -0.000158199 -0.0227513 0.00640641 -0.000133761 -0.0316472 0.00702299 -9.08624e-05 -0.0415483 
0.00749466 -6.33255e-05 -0.05223 0.00782896 -3.68695e-05 -0.0635008 0.00804676 -9.39387e-06 -0.0751749 
0.00133628 0.000253383 -0.00104021 0.0026195 0.000248234 -0.00397051 0.00377252 0.000224985 -0.00871002 
0.00478521 0.000200974 -0.0150399 0.00568105 0.000172294 -0.0227573 0.00642407 0.000151173 -0.031655 
0.00703747 0.000120331 -0.0415517 0.0075122 9.55525e-05 -0.0522311 0.00785334 7.52012e-05 -0.0635018 
0.00804999 5.28041e-05 -0.0751752 -0.00132837 0.000295963 -0.00101852 -0.00261952 0.00025461 -0.00397338 
-0.0037794 0.000228692 -0.00871582 -0.00480649 0.000203195 -0.0150382 -0.00567803 0.000178163 -0.0227512 
-0.00643201 0.000158363 -0.0316527 -0.00704009 0.000125273 -0.0415528 -0.00751662 0.000106418 -0.0522309 
-0.00785506 8.15831e-05 -0.0635054 -0.00806462 5.21201e-05 -0.0751769 -0.00131369 -0.000287103 -0.00102798 
-0.00261157 -0.000250033 -0.00397615 -0.00375968 -0.000219105 -0.00871555 -0.00476975 -0.000189061 -0.0150409 
-0.00566923 -0.000160083 -0.0227549 -0.00641773 -0.000135053 -0.0316529 -0.00702606 -9.21023e-05 -0.0415522 
-0.00750197 -6.8998e-05 -0.0522335 -0.00784631 -3.73851e-05 -0.0635047 -0.00803672 -3.68737e-06 -0.0751755 
-3.94934e-06 2.5323e-05 -0.0869199 0 0 0 -2.7673e-06 1.37286e-05 -0.0364904 
0 0 0 0.00064692 -0.000187484 -0.000277704 0.001962 -0.000262209 -0.00226788 
0.00318249 -0.000235341 -0.00613194 0.00428102 -0.000205507 -0.0116892 0.00523232 -0.000179814 -0.0187332 
0.00604167 -0.000145697 -0.0270668 0.00672844 -0.000112284 -0.0364892 0.00726838 -7.87055e-05 -0.0468069 
0.00767183 -5.05319e-05 -0.0578084 0.00794604 -1.89441e-05 -0.0693016 0.00808806 3.50086e-06 -0.0810297 
0.00812992 2.48271e-05 -0.0869271 0.000637429 0.000185292 -0.000316585 0.00198796 0.000253289 -0.00226964 
0.00320754 0.000237531 -0.00613418 0.00429044 0.00021315 -0.0116931 0.00524418 0.000187787 -0.0187339 
0.00606415 0.000161627 -0.0270728 0.00674238 0.000138119 -0.0364917 0.00728684 0.000108975 -0.0468093 
0.00769513 8.58701e-05 -0.0578094 0.00796321 6.4207e-05 -0.0693056 0.00810102 4.28853e-05 -0.0810308 
0 0 0 -0.000623636 0.00021172 -0.000313386 -0.00198853 0.000268647 -0.0022539 
-0.00321091 0.000239888 -0.0061299 -0.00430369 0.000216112 -0.0116874 -0.00525318 0.000189946 -0.018737 
-0.00606692 0.000168379 -0.0270618 -0.00674796 0.000141764 -0.0364896 -0.0072911 0.000115237 -0.0468005 
-0.00769818 9.2948e-05 -0.0578016 -0.00797105 6.5735e-05 -0.0693003 -0.00810396 4.16095e-05 -0.0810347 
-0.00813222 2.65346e-05 -0.0869216 -0.000643862 -0.000207073 -0.000282119 -0.00197027 -0.000265752 -0.00226515 
-0.00319371 -0.000238014 -0.00613474 -0.00427362 -0.00020806 -0.0116921 -0.0052282 -0.000170352 -0.0187368 
-0.00605291 -0.00014729 -0.0270634 -0.00673497 -0.00011124 -0.0364919 -0.00727322 -8.07518e-05 -0.0468028 
-0.00768343 -5.22805e-05 -0.0578038 -0.00795002 -2.39296e-05 -0.069303 -0.00808978 7.14298e-06 -0.0810333 
-4.78104e-06 2.45097e-05 -0.0869097 0 0 0 -4.11191e-06 2.84025e-05 -0.0869098 
0 0 0 0.000627331 -6.15258e-06 -0.000396113 0.00132224 -8.78838e-06 -0.00115565 
0.00197739 -3.90958e-06 -0.00239563 0.00261107 -2.52656e-06 -0.00409683 0.00320389 5.31874e-06 -0.00625233 
0.00376892 6.09961e-07 -0.00882348 0.00429429 9.19649e-06 -0.0117967 0.00524955 -1.5734e-06 -0.018824 
0.00567614 6.00723e-06 -0.0228347 0.00606119 9.39543e-06 -0.0271471 0.00642207 9.79075e-06 -0.0317216 
0.006749 1.4922e-05 -0.0365518 0.00703755 1.29661e-05 -0.0416009 0.00728541 1.61541e-05 -0.0468551 
0.0075096 1.56094e-05 -0.0522684 0.00769006 1.89154e-05 -0.0578441 0.00784791 1.9757e-05 -0.0635312 
0.00796495 2.73272e-05 -0.0693257 0.00810336 2.16212e-05 -0.0810398 0.00478949 4.20747e-06 -0.015137 
0.00805198 2.26686e-05 -0.0751902 -0.00062785 -3.3519e-06 -0.000409998 -0.00198376 -2.38239e-06 -0.00238764 
-0.0013189 -1.66211e-06 -0.00115394 -0.00321089 -3.80905e-06 -0.00625106 -0.00261978 1.36844e-06 -0.00410117 
-0.00430062 -8.46146e-07 -0.0117938 -0.00377513 4.48174e-06 -0.00882705 -0.00567842 9.33603e-06 -0.0228368 
-0.00525392 1.48309e-05 -0.0188284 -0.00606696 9.4727e-06 -0.0271406 -0.00703927 1.48996e-05 -0.0416071 
-0.00675446 1.6934e-05 -0.0365537 -0.00728888 1.60097e-05 -0.0468499 -0.00769711 1.88452e-05 -0.057839 
-0.00751467 1.90458e-05 -0.0522776 -0.00797241 1.60394e-05 -0.0693237 -0.00785565 2.2403e-05 -0.0635378 
-0.0081096 2.67931e-05 -0.0810438 -0.00479602 7.24614e-06 -0.0151373 -0.00643097 1.26847e-05 -0.0317272 
-0.00805777 2.45019e-05 -0.0751889 -2.27543e-05 -6.81984e-06 -0.000135646 -3.18616e-06 -6.05257e-07 -0.000883683 
-3.99703e-08 -5.42748e-06 -0.00213201 -4.41324e-07 -5.58346e-07 -0.00384647 -1.69944e-06 8.15304e-07 -0.00601408 
-8.47233e-07 1.89761e-06 -0.00859978 1.14574e-09 4.24363e-06 -0.0115849 -1.57079e-06 6.45506e-06 -0.0186422 
-5.44324e-06 9.4139e-06 -0.0226676 -3.01786e-06 6.95561e-06 -0.0269889 1.36212e-06 1.19507e-05 -0.0315804 
-3.26184e-06 1.42873e-05 -0.0364251 -2.49931e-06 1.63146e-05 -0.041494 -3.17293e-06 1.16274e-05 -0.046756 
-1.13551e-06 1.94748e-05 -0.0521883 -1.61844e-06 1.3817e-05 -0.0577722 -4.34452e-07 2.15888e-05 -0.0634755 
-9.4044e-07 2.27129e-05 -0.0692828 -1.96494e-06 2.51631e-05 -0.0810252 3.59328e-06 4.9195e-06 -0.0149399 
2.46803e-06 2.27739e-05 -0.0751616 -2.53508e-05 -3.95824e-06 -0.000138102 -2.60325e-06 -3.90028e-08 -0.00213095 
-9.69458e-06 3.79534e-07 -0.000882583 -3.73595e-06 -1.44939e-07 -0.00601311 -4.00388e-06 -1.60385e-06 -0.00384852 
-2.59751e-06 3.22069e-06 -0.011585 -4.19968e-06 2.09465e-06 -0.00860206 -9.0733e-06 8.0517e-06 -0.0226702 
-4.27226e-06 7.89563e-06 -0.0186459 -2.83524e-06 1.41801e-05 -0.0269901 -8.15956e-06 1.46069e-05 -0.0414968 
-2.21175e-06 1.48316e-05 -0.0364275 -4.43027e-06 2.01156e-05 -0.0467552 -3.92119e-06 2.38185e-05 -0.0577703 
-4.94033e-06 1.51046e-05 -0.0521904 -2.36175e-06 2.136e-05 -0.0692813 -4.4348e-06 1.90566e-05 -0.063477 
-5.23745e-06 2.27217e-05 -0.081026 -1.75448e-07 5.79128e-06 -0.0149419 -2.81061e-06 1.00857e-05 -0.0315839 
-6.37801e-07 2.40309e-05 -0.0751612 -0.00405738 2.49693e-05 -0.0869153 0.0040553 2.69793e-05 -0.0869229 
0.00405238 2.51907e-05 -0.086918 -0.00406131 2.68954e-05 -0.0869173 0 0 0 
0 0 0 0 0 0 0 0 0 
-1.23221e-07 -2.85298e-06 -0.00397215 -2.15446e-07 1.98623e-05 -0.0635053 -3.26666e-06 2.2362e-05 -0.0693038 
-2.8987e-06 2.32709e-06 -0.0087131 -4.41612e-06 4.33302e-06 -0.0116901 -7.23168e-06 5.67889e-06 -0.015039 
-1.98744e-06 4.11446e-08 -0.00613232 -0.00405244 3.00589e-05 -0.0810357 0.0040428 1.7825e-05 -0.0810331 
-5.77427e-06 2.45607e-05 -0.0751772 -0.00404701 2.13528e-05 -0.0810344 -3.00508e-06 1.57635e-05 -0.0468035 
-3.69705e-06 1.36761e-05 -0.0415482 -2.07395e-06 1.89719e-05 -0.0578064 -2.67916e-06 1.7318e-05 -0.052231 
-0.000312826 5.37809e-05 -0.000257227 0.000311838 -6.31983e-05 -0.000254002 -0.000317217 -5.94566e-05 -0.000269984 
-2.59155e-06 -2.79342e-06 -0.00225696 -5.61771e-06 -9.73823e-06 -0.00100945 0.000304786 5.40265e-05 -0.000245024 
-0.00329254 -2.19753e-05 -0.0340452 -0.00329529 4.85673e-05 -0.0340423 0.00328606 -2.28185e-05 -0.0340412 
-1.38895e-06 1.38274e-05 -0.0316535 0.00329064 4.70214e-05 -0.0340416 0.00344386 4.27173e-05 -0.0389911 
0.00343889 -1.37157e-05 -0.0389924 -3.45107e-06 6.82669e-06 -0.0187348 -1.66567e-06 9.10392e-06 -0.0227532 
-2.07402e-06 1.05345e-05 -0.0270668 -0.00344906 4.35035e-05 -0.0389927 -0.00344438 -1.30884e-05 -0.0389955 

Displacement%20Magnitude 1 228 double
0.087292975244 0.087291912241 0.087287122165 0.087302986267 0 0 0 0 0.0016911708496 
0.0047489951291 0.0094898652142 0.015783578661 0.023444780206 0.032289398398 0.042137772573 0.052765015291 0.063981603408 0.075604338664 
0.0017122745186 0.0047632289499 0.0094945760201 0.015784081136 0.02345631509 0.032300627759 0.042143614421 0.052768646812 0.063985617193 
0.07560499866 0.0016998658608 0.0047659689368 0.0095027197509 0.015788954797 0.023449709341 0.032299988371 0.042145150947 0.052769099062 
0.063989408909 0.075608247605 0.0016926170356 0.0047636732873 0.0094944200721 0.015780206967 0.023451039836 0.032297237902 0.042142132442 
0.052769525646 0.063987599583 0.075603866847 0.086919903778 0 0.036490402687 0 0.00072854323706 0.0030102287711 
0.0069126200641 0.012450171164 0.019451022798 0.027733277236 0.037104531114 0.047367936729 0.058315269352 0.069755656926 0.081432358488 
0.087306454114 0.00073544198788 0.00302777245 0.0069262470429 0.012457202572 0.019454965871 0.027744126195 0.037109607029 0.047373204232 
0.058319371805 0.069761615717 0.081434752488 0 0.00072935451181 0.0030176958067 0.0069241001791 0.012456475054 0.019460399497 
0.027734038455 0.037108570026 0.047365179394 0.058312053447 0.069757247217 0.081438924988 0.087301192734 0.00073282237448 0.0030138832958 
0.0069203662545 0.012450394342 0.019453297131 0.027732418455 0.037108367801 0.047364631719 0.058312238203 0.06975750282 0.081436111771 
0.086909703588 0 0.086909804738 0 0.00074194847973 0.0017561101263 0.0031063048134 0.0048581590111 0.0070254231083 
0.0095947150895 0.012554009004 0.019542281179 0.023529601048 0.027815519965 0.032365150788 0.037169655728 0.042191967943 0.04741811738 
0.052805113146 0.05835304007 0.064014087943 0.069781758761 0.081443932216 0.015876649557 0.075620110234 0.00074987013391 0.0031042123289 
0.0017524489996 0.0070274874759 0.004866502285 0.012553447795 0.009600439485 0.023532190189 0.019547699145 0.027810434404 0.042198368624 
0.037172516734 0.047413512399 0.058348914116 0.052814941917 0.069780620233 0.064021588294 0.081448534968 0.01587890776 0.032372407323 
0.075619434942 0.00013771022367 0.00088368895118 0.0021320169088 0.0038464700658 0.0060140802954 0.0085997802511 0.011584900777 0.018642201184 
0.022667602608 0.026988901065 0.031580402291 0.036425102948 0.041494003283 0.046756001553 0.052188303646 0.057772201675 0.063475503673 
0.069282803729 0.081025203931 0.014939901242 0.075161603491 0.00014046527375 0.0021309515905 0.00088263632421 0.0060131111623 0.003848522417 
0.011585000739 0.0086020612802 0.022670203246 0.018645902161 0.026990103874 0.041496803373 0.036427503087 0.046755204537 0.057770305043 
0.05219040242 0.069281303333 0.063477003015 0.081026003355 0.014941901123 0.031583901735 0.075161203844 0.08700995535 0.087017450723 
0.087012419471 0.087012137093 0 0 0 0 0.0039721510265 0.063505303106 0.069303803685 
0.0087131007929 0.011690101637 0.015039002811 0.0061323203222 0.081136969675 0.081133888389 0.075177204234 0.081135397511 0.046803502751 
0.041548202415 0.05780640315 0.05223100294 0.00040855626419 0.00040712894686 0.00042077674915 0.0022569632166 0.0010095126023 0.00039477858234 
0.034204048673 0.034201454417 0.034199444563 0.031653503051 0.034200307794 0.039142916034 0.039143753145 0.018734801562 0.022753201882 
0.027066802129 0.039144968524 0.039147323601 
Tresca%20Stress 1 228 double
8323032.2048 12232982.866 7818614.3006 10350102.893 145449946.21 166253735.94 164198202.21 159367199.18 195261192.29 
175601631.46 159398182.53 137990746.78 115471372.02 98025752.911 76413066.56 56443954.436 40020839.91 21683817.857 
208492415.83 173445119.2 153762169.42 137794993.6 119111312.9 97089666.455 78778451.539 56349983.709 36406088.94 
21561104.69 209670582.72 179107666.04 161338003.26 137484024.2 117797170.63 99074206.046 82526210.232 61808115.982 
42471477.013 19181810.212 198788854.66 177503245.78 156018293.67 138609934.85 120403756.95 101018565.99 78687206.767 
63065507.785 41214862.409 22820087.864 12468955.21 7468098.3376 9264818.8534 139597837.72 196483142.19 184211498.89 
168950556.78 150403068.64 125622027.83 108467013.72 89672068.041 69105367.108 49698040.784 33359439.901 13077841.474 
8277893.8338 194254842.44 184981015.13 166041085.62 146355776.42 130580831.22 107295845.32 89214273.794 68486474.379 
49026074.974 29247558.292 14189355.715 139353931.19 185437091.22 189248284.22 168697597.33 149557291.7 126134706.11 
109426831.24 88440398.107 69501834.459 49805587.75 32398782.42 10879227.601 6255224.3596 182453505.09 190225198.38 
166220816.55 146410924.3 130751277.06 109492229.36 88970482.432 69761169.15 51104305.953 29313137.359 14514755.009 
11714782.367 18806887.132 11041500.65 25780622.88 192676679.49 201708605.45 187055234.23 176514454.27 167544447.94 
156991554.94 147830142.78 129257787.65 115249318.17 108052626.85 98317134.758 88754547.159 76673030.627 68255052.519 
55857854.147 49361902.633 39414247.397 30285913.355 12456649.989 137844419.49 20939393.461 193803519.54 187521057.4 
203525677.14 167707851.37 179865596.63 148629453.14 158187254.06 117768194.78 128359339.82 108973997.89 79642405.142 
87720516.576 68673711.286 49510634.275 62475899.056 31017789.167 42930108.509 11200387.832 137717425.91 100945996.9 
19271253.827 34131092.878 11782831.426 11261709.211 12131002.715 12385789.168 11177170.221 11431569.888 11468805.865 
12408323.608 11208953.89 11580894.875 13044225.656 12113891.024 11204392.799 11825943.142 11538409.675 12478486.704 
12352679.659 10709733.525 9769034.553 10568587.445 29822943.137 9859671.4568 15633990.677 11868212.167 10575286.402 
12574014.577 11528156.871 10835994.482 12311698.167 10748786.639 11743956.934 11653658.896 10967750.121 10864962.634 
11666056.26 12137844.739 10775854.173 11468426.758 13543994.935 11679679.153 12515878.98 10093307.735 10946505.331 
11671562.628 9991390.1557 74382638.913 77549595.453 67196607.235 80021793.719 11233972.606 10631292.376 9766083.6819 
10773151.062 9913178.5549 10474585.804 9734434.4289 10794703.097 11793886.304 10476019.225 13579894.706 10885483.71 
10435798.583 10815698.3 10793957.294 104334774.67 96843949.614 102574016.62 11102015.841 11389870.008 102665752.87 
49097304.069 48759108.152 48209733.973 11281332.016 48385446.105 42015909.593 40651465.901 10150093.356 10690660.081 
10943304.768 43127694.555 41591773.505 
Strain%20xx%20component 1 228 double
-2.94247e-05 4.37605e-05 -4.06178e-05 6.77209e-05 -0.00160188 0.0017014 -0.00169713 0.00166628 0.00183225 
0.00166858 0.00151396 0.00131144 0.0010913 0.00092362 0.00072007 0.000526737 0.000363372 0.000194506 
0.00191949 0.00164746 0.00145956 0.00130936 0.00112752 0.000920266 0.000748825 0.000533411 0.000337762 
0.000190213 -0.00192589 -0.00170401 -0.00152978 -0.00130735 -0.00111912 -0.000940274 -0.000779938 -0.000585196 
-0.000399327 -0.00017495 -0.0018495 -0.00168488 -0.00148213 -0.00131245 -0.00114173 -0.000951603 -0.000742368 
-0.000592391 -0.000381544 -0.000181714 1.3862e-05 -2.06785e-05 -3.66931e-06 0.00163905 0.00180718 0.00175246 
0.00160047 0.00141974 0.00119187 0.00102827 0.000846946 0.000647893 0.000459203 0.00029918 8.71872e-05 
4.62434e-05 0.00183554 0.00176266 0.0015838 0.00139106 0.00123054 0.00102062 0.00084258 0.000652097 
0.000468597 0.000270133 0.000109729 -0.00161345 -0.00182468 -0.00177356 -0.00159322 -0.00141084 -0.00119716 
-0.00103568 -0.000835278 -0.000654569 -0.000464878 -0.000287856 -8.26649e-05 -3.62135e-05 -0.00180451 -0.00178281 
-0.00157706 -0.00138747 -0.00123554 -0.00102816 -0.000835621 -0.000653709 -0.000473005 -0.000261541 -0.000111404 
1.87977e-05 4.88899e-05 3.91158e-05 -3.39762e-05 0.00184346 0.00186995 0.00177256 0.00168258 0.00158818 
0.00149248 0.00139954 0.00122037 0.00109243 0.00102742 0.000930568 0.00084251 0.000727114 0.000651775 
0.000527901 0.000467924 0.000371835 0.000276747 0.000101258 0.00131145 0.000191051 -0.00184953 -0.00177739 
-0.00189982 -0.00158934 -0.0017095 -0.00140454 -0.00150052 -0.00111816 -0.00121045 -0.00103034 -0.000751955 
-0.000833959 -0.000648159 -0.000464201 -0.000590506 -0.000282015 -0.00040414 -9.872e-05 -0.00130922 -0.000954793 
-0.000173024 -7.50445e-05 1.23616e-05 3.82314e-05 -2.96362e-05 2.68347e-05 -7.89746e-06 3.13856e-05 -3.88531e-05 
-3.33417e-06 3.48844e-05 -1.69044e-05 2.99289e-05 -2.72563e-05 3.34466e-05 -2.79386e-05 3.41657e-05 -2.82377e-05 
3.0621e-05 -3.71423e-05 1.05919e-06 6.95744e-06 -7.33345e-05 3.94788e-05 4.97952e-05 2.66662e-05 -9.98332e-06 
3.36521e-05 -1.1209e-05 -4.3531e-06 -3.93689e-05 3.54633e-05 9.94253e-07 -4.12553e-05 3.36815e-05 3.4191e-05 
-2.85585e-05 3.27605e-05 -1.30296e-05 -3.98072e-05 -3.02942e-06 -5.67125e-06 -3.88001e-06 3.1924e-06 4.12002e-05 
1.61192e-05 1.98913e-06 0.000789763 -0.000810394 -0.000748007 0.000820365 -9.39641e-06 -1.45644e-05 -3.05558e-05 
1.6472e-06 -2.87047e-05 7.49043e-07 -2.65753e-05 -5.96584e-05 6.17186e-05 5.42783e-06 -6.4514e-05 2.71687e-05 
-1.6762e-05 2.99219e-05 -2.89599e-05 -0.000953826 0.00091034 -0.00093369 2.96756e-05 -1.36608e-05 0.000939708 
-0.000449733 -0.000457018 0.000444563 -1.75006e-05 0.000454126 0.000391547 0.000381266 3.10641e-05 -1.57983e-05 
2.64566e-05 -0.00040058 -0.000382655 
Strain%20xy%20component 1 228 double
-5.11156e-06 7.60929e-06 8.667e-07 -5.81009e-06 0.000378376 -0.000261259 -0.000305502 0.00028564 -3.93768e-06 
6.10543e-06 3.30471e-06 6.36125e-06 3.30347e-06 2.4686e-06 2.2419e-06 5.69935e-07 8.37956e-06 5.08079e-06 
2.15865e-05 -4.59161e-06 -4.22993e-06 -1.06613e-05 -4.85787e-06 -5.53592e-06 -7.76236e-06 -6.64176e-06 -2.531e-06 
-9.58505e-06 3.5799e-05 -8.04286e-06 -2.6711e-06 -4.89895e-06 -9.05455e-06 -6.62925e-06 -5.82812e-06 -5.82045e-06 
-6.0899e-06 -3.96317e-06 -4.19038e-06 2.02552e-06 -2.14787e-06 2.52693e-06 -3.68862e-07 8.12596e-06 6.44757e-06 
5.16407e-06 -3.47254e-07 3.09041e-06 -1.24811e-06 4.0027e-06 -1.09367e-06 7.20429e-05 -0.000169448 6.13963e-06 
6.50698e-06 2.1664e-05 1.69807e-05 8.149e-06 1.24026e-05 1.10878e-05 8.272e-06 8.66382e-06 1.33816e-05 
-3.19302e-06 0.000178221 -8.50005e-06 -1.52419e-05 -1.08312e-05 -1.25154e-05 -1.06384e-05 -1.0814e-05 -1.22686e-05 
-1.22828e-05 -1.00401e-05 -7.18747e-06 8.29479e-05 0.000195009 -3.53077e-05 -1.35815e-05 -1.49943e-05 -1.16577e-05 
-8.76928e-06 -9.97075e-06 -8.97792e-06 -1.2748e-05 -1.39089e-05 -6.52213e-06 -2.55449e-06 -0.000170725 2.3803e-05 
1.40387e-05 -1.12718e-06 2.28184e-06 1.70033e-05 1.7638e-05 1.19139e-05 1.88307e-05 6.52141e-06 8.56705e-06 
-2.44802e-06 7.81844e-05 8.23278e-06 -9.26918e-05 -8.06953e-05 5.99586e-06 -1.00527e-05 -6.74673e-06 -1.48471e-05 
-3.43614e-06 -6.31452e-06 -8.82708e-06 -6.87803e-06 -8.97297e-06 -6.08789e-06 -3.42737e-06 -1.03677e-05 -5.0209e-06 
-1.06686e-05 -8.45938e-06 -3.87559e-06 -1.01687e-05 -4.55797e-06 -4.25621e-06 -6.00478e-06 -7.9498e-05 2.62851e-06 
1.66235e-05 -9.43529e-06 -7.48041e-06 -1.87999e-05 -5.3433e-06 -7.49942e-06 -1.6851e-05 -3.93554e-06 -8.98816e-06 
-6.65654e-06 -6.22137e-06 -3.92082e-06 -8.41919e-06 -1.16968e-05 -8.67488e-06 -9.4946e-06 -1.97341e-06 -4.65758e-06 
-6.2654e-06 -0.000138213 2.70253e-06 4.60812e-06 8.57809e-06 9.62234e-06 1.07964e-05 1.34761e-05 7.37532e-06 
1.93788e-06 1.29604e-06 4.85543e-06 2.9201e-06 8.9257e-06 3.51216e-06 8.80302e-06 2.61517e-06 1.03851e-05 
9.53213e-06 2.88098e-06 1.75567e-05 1.71278e-05 0.000130553 -1.83399e-06 -2.23164e-06 1.25204e-05 1.05208e-05 
1.4584e-06 7.37337e-06 1.47735e-05 3.24534e-07 5.62298e-06 1.33597e-05 3.04686e-06 5.69459e-06 6.60959e-06 
1.08917e-05 5.44867e-06 1.02367e-05 1.15813e-06 -1.36195e-06 4.8447e-06 -1.06558e-06 -4.19771e-07 -1.27416e-06 
1.72468e-06 -1.09453e-06 0.00012643 -0.000148036 0.000161427 -0.000126303 -1.0115e-07 -3.69928e-07 -3.3285e-06 
1.80661e-07 -3.83623e-06 -3.65739e-08 -5.84476e-06 -5.0143e-06 6.8714e-06 -3.5247e-07 9.06169e-08 -4.18448e-06 
-4.34664e-07 -3.59252e-06 2.4053e-07 3.31658e-05 1.64921e-05 -5.77997e-06 2.23556e-06 -9.09247e-07 2.00118e-05 
5.13987e-06 -3.50684e-06 -1.38691e-07 4.93606e-07 -1.67927e-06 -6.05581e-06 1.64426e-06 -6.91549e-07 1.47713e-08 
-3.24544e-06 -2.20852e-06 1.49011e-06 
Strain%20xz%20component 1 228 double
-4.44906e-05 -6.69567e-05 -3.88791e-05 -3.95426e-05 -0.000161419 -4.7972e-05 -0.000201415 5.52603e-06 -6.17784e-05 
-7.72684e-05 -6.48202e-05 -4.42792e-05 -7.54524e-05 -7.18809e-05 -5.92929e-05 -6.51157e-05 -7.33054e-05 -4.83922e-05 
-5.93862e-06 -3.89671e-05 -4.31596e-05 -5.42276e-05 -3.46627e-05 -3.81322e-05 -4.31586e-05 -3.99832e-05 -4.27494e-05 
-4.94276e-05 -3.36399e-05 -4.11568e-05 -3.94746e-05 -3.24291e-05 -5.24528e-05 -3.01885e-05 -5.60622e-05 -4.2424e-05 
-4.08765e-05 -3.2286e-05 -6.2101e-05 -5.75523e-05 -6.61165e-05 -9.02977e-05 -5.45551e-05 -7.06582e-05 -5.74485e-05 
-6.34893e-05 -5.6256e-05 -7.79427e-05 -7.66125e-05 -3.6048e-05 -5.70935e-05 -0.000264554 -4.98405e-05 -6.38246e-05 
-6.80769e-05 -5.80409e-05 -5.87693e-05 -6.17092e-05 -6.4236e-05 -5.8072e-05 -6.55963e-05 -6.68579e-05 -5.4502e-05 
-3.78106e-05 -4.4947e-05 -1.404e-05 -3.32654e-05 -4.65114e-05 -4.40339e-05 -3.81312e-05 -4.29872e-05 -3.34378e-05 
-3.38674e-05 -4.46306e-05 -4.51486e-05 -0.000294126 -8.6174e-05 -3.77603e-05 -3.43553e-05 -2.80475e-05 -4.10762e-05 
-4.51411e-05 -4.07179e-05 -3.98651e-05 -3.70746e-05 -3.3419e-05 -3.56713e-05 -2.70741e-05 -7.92004e-05 -6.20983e-05 
-5.75062e-05 -7.07883e-05 -7.31281e-05 -5.62106e-05 -6.63713e-05 -6.40157e-05 -5.60123e-05 -6.3071e-05 -5.17057e-05 
-7.11625e-05 8.27292e-05 -6.1399e-05 0.000128802 -0.000128759 -4.68667e-05 -2.99758e-05 -4.75193e-05 -3.87391e-05 
-3.95814e-05 -3.33188e-05 -2.69704e-05 -4.2562e-05 -3.20353e-05 -4.39439e-05 -2.3419e-05 -3.91609e-05 -2.91517e-05 
-4.24398e-05 -3.79757e-05 -4.39131e-05 -3.74904e-05 -2.89173e-05 -3.36354e-05 -3.4614e-05 -0.00014682 -4.46503e-05 
-4.90983e-05 -3.2527e-05 -4.00026e-05 -3.39366e-05 -3.88019e-05 -3.96035e-05 -3.46124e-05 -3.14759e-05 -4.35325e-05 
-2.25333e-05 -3.65992e-05 -3.0393e-05 -4.19704e-05 -2.89775e-05 -3.72785e-05 -1.66349e-05 -4.81094e-05 -3.90849e-05 
-3.96988e-05 5.79419e-05 -5.31987e-05 -6.04302e-05 -7.28262e-05 -7.28751e-05 -6.80814e-05 -6.42242e-05 -6.37131e-05 
-7.6763e-05 -6.49556e-05 -7.05809e-05 -7.78357e-05 -7.27476e-05 -6.49259e-05 -7.12452e-05 -6.69454e-05 -7.47842e-05 
-7.1294e-05 -6.08779e-05 -5.78667e-05 -6.30926e-05 4.5067e-06 -4.96409e-05 -3.4038e-05 -6.89524e-05 -6.40948e-05 
-7.38332e-05 -7.04776e-05 -6.53708e-05 -7.05757e-05 -6.04526e-05 -7.14622e-05 -6.63489e-05 -6.34904e-05 -6.19887e-05 
-6.97192e-05 -7.08006e-05 -6.54359e-05 -6.67121e-05 -8.38083e-05 -7.18824e-05 -7.73914e-05 -6.23192e-05 -6.03686e-05 
-7.0557e-05 -6.1727e-05 -2.9189e-06 -0.000116478 -8.42775e-05 -2.96779e-05 -6.92051e-05 -6.50717e-05 -5.68296e-05 
-6.66652e-05 -5.80879e-05 -6.4842e-05 -5.70697e-05 -5.22892e-05 -6.09641e-05 -6.47597e-05 -7.24918e-05 -6.43973e-05 
-6.36597e-05 -6.32044e-05 -6.4117e-05 -3.81943e-05 -5.74306e-05 -6.08848e-05 -6.46451e-05 -6.94009e-05 -1.2985e-05 
-6.35205e-05 -3.929e-05 -6.97645e-05 -6.88461e-05 -4.59658e-05 -5.27122e-05 -5.36883e-05 -5.96741e-05 -6.54199e-05 
-6.44768e-05 -5.94067e-05 -5.95774e-05 
Strain%20yy%20component 1 228 double
1.11828e-05 -1.47758e-05 2.38269e-05 -2.43765e-05 -1.71061e-09 -1.1311e-05 7.72706e-05 7.21717e-05 -0.000517687 
-0.000502732 -0.00045451 -0.000395559 -0.000323878 -0.000284792 -0.000207615 -0.000156448 -0.000115706 -6.32254e-05 
-0.000569607 -0.000488742 -0.000433966 -0.000392748 -0.000341544 -0.00027644 -0.000223949 -0.000159607 -9.67874e-05 
-5.8344e-05 0.00053518 0.000506502 0.000460913 0.000391547 0.000337062 0.000285539 0.000232933 0.000175437 
0.000118563 5.26129e-05 0.000464674 0.000498845 0.000444668 0.000393088 0.000339193 0.000294756 0.000214673 
0.000177356 0.000119355 5.77844e-05 -6.3702e-06 -3.39507e-05 -2.94662e-06 2.09651e-09 -0.000262343 -0.000508659 
-0.000488815 -0.000439767 -0.000345822 -0.000306215 -0.000252693 -0.000182778 -0.000131855 -0.00010209 -2.7536e-05 